r 1.071507 1 0 ack 40 ------- 1 3.0 2.0 0 562
r 1.167347 1 0 ack 40 ------- 1 3.0 2.0 1 622
r 1.174867 1 0 ack 40 ------- 1 3.0 2.0 2 627
r 1.26396 1 0 ack 40 ------- 1 3.0 2.0 3 685
r 1.27064 1 0 ack 40 ------- 1 3.0 2.0 4 690
r 1.27732 1 0 ack 40 ------- 1 3.0 2.0 5 695
r 1.284 1 0 ack 40 ------- 1 3.0 2.0 6 700
r 1.3598 1 0 ack 40 ------- 1 3.0 2.0 7 754
r 1.36648 1 0 ack 40 ------- 1 3.0 2.0 8 759
r 1.374 1 0 ack 40 ------- 1 3.0 2.0 9 765
r 1.38068 1 0 ack 40 ------- 1 3.0 2.0 10 770
r 1.38736 1 0 ack 40 ------- 1 3.0 2.0 11 775
r 1.39488 1 0 ack 40 ------- 1 3.0 2.0 12 780
r 1.40156 1 0 ack 40 ------- 1 3.0 2.0 13 787
r 1.40824 1 0 ack 40 ------- 1 3.0 2.0 14 794
r 1.45564 1 0 ack 40 ------- 1 3.0 2.0 15 835
r 1.46232 1 0 ack 40 ------- 1 3.0 2.0 16 840
r 1.46984 1 0 ack 40 ------- 1 3.0 2.0 17 846
r 1.47652 1 0 ack 40 ------- 1 3.0 2.0 18 851
r 1.4832 1 0 ack 40 ------- 1 3.0 2.0 19 856
r 1.49072 1 0 ack 40 ------- 1 3.0 2.0 20 861
r 1.4974 1 0 ack 40 ------- 1 3.0 2.0 21 868
r 1.50408 1 0 ack 40 ------- 1 3.0 2.0 22 875
r 1.5116 1 0 ack 40 ------- 1 3.0 2.0 23 883
r 1.51828 1 0 ack 40 ------- 1 3.0 2.0 24 890
r 1.52496 1 0 ack 40 ------- 1 3.0 2.0 25 896
r 1.53164 1 0 ack 40 ------- 1 3.0 2.0 26 902
r 1.53916 1 0 ack 40 ------- 1 3.0 2.0 27 908
r 1.54584 1 0 ack 40 ------- 1 3.0 2.0 28 914
r 1.55252 1 0 ack 40 ------- 1 3.0 2.0 29 920
r 1.56004 1 0 ack 40 ------- 1 3.0 2.0 30 926
r 1.57008 1 0 ack 40 ------- 1 3.0 2.0 31 934
r 1.57676 1 0 ack 40 ------- 1 3.0 2.0 32 940
r 1.58428 1 0 ack 40 ------- 1 3.0 2.0 33 947
r 1.59096 1 0 ack 40 ------- 1 3.0 2.0 34 953
r 1.59764 1 0 ack 40 ------- 1 3.0 2.0 35 959
r 1.60516 1 0 ack 40 ------- 1 3.0 2.0 36 965
r 1.61184 1 0 ack 40 ------- 1 3.0 2.0 37 971
r 1.61852 1 0 ack 40 ------- 1 3.0 2.0 38 977
r 1.62604 1 0 ack 40 ------- 1 3.0 2.0 39 984
r 1.63272 1 0 ack 40 ------- 1 3.0 2.0 40 990
r 1.6394 1 0 ack 40 ------- 1 3.0 2.0 41 996
r 1.64608 1 0 ack 40 ------- 1 3.0 2.0 42 1002
r 1.6536 1 0 ack 40 ------- 1 3.0 2.0 43 1008
r 1.66028 1 0 ack 40 ------- 1 3.0 2.0 44 1014
r 1.66696 1 0 ack 40 ------- 1 3.0 2.0 45 1020
r 1.67448 1 0 ack 40 ------- 1 3.0 2.0 46 1027
r 1.68116 1 0 ack 40 ------- 1 3.0 2.0 47 1033
r 1.68784 1 0 ack 40 ------- 1 3.0 2.0 48 1039
r 1.69536 1 0 ack 40 ------- 1 3.0 2.0 49 1045
r 1.70204 1 0 ack 40 ------- 1 3.0 2.0 50 1051
r 1.7104 1 0 ack 40 ------- 1 3.0 2.0 51 1058
r 1.71792 1 0 ack 40 ------- 1 3.0 2.0 52 1064
r 1.72628 1 0 ack 40 ------- 1 3.0 2.0 53 1071
r 1.7338 1 0 ack 40 ------- 1 3.0 2.0 54 1078
r 1.74132 1 0 ack 40 ------- 1 3.0 2.0 55 1084
r 1.74884 1 0 ack 40 ------- 1 3.0 2.0 56 1091
r 1.75636 1 0 ack 40 ------- 1 3.0 2.0 57 1097
r 1.76388 1 0 ack 40 ------- 1 3.0 2.0 58 1104
r 1.77224 1 0 ack 40 ------- 1 3.0 2.0 59 1111
r 1.77976 1 0 ack 40 ------- 1 3.0 2.0 60 1117
r 1.78728 1 0 ack 40 ------- 1 3.0 2.0 61 1124
r 1.7948 1 0 ack 40 ------- 1 3.0 2.0 62 1130
r 1.80232 1 0 ack 40 ------- 1 3.0 2.0 63 1137
r 1.80984 1 0 ack 40 ------- 1 3.0 2.0 64 1143
r 1.81736 1 0 ack 40 ------- 1 3.0 2.0 65 1150
r 1.82488 1 0 ack 40 ------- 1 3.0 2.0 66 1156
r 1.8324 1 0 ack 40 ------- 1 3.0 2.0 67 1163
r 1.83992 1 0 ack 40 ------- 1 3.0 2.0 68 1169
r 1.84828 1 0 ack 40 ------- 1 3.0 2.0 69 1176
r 1.8558 1 0 ack 40 ------- 1 3.0 2.0 70 1183
r 1.86416 1 0 ack 40 ------- 1 3.0 2.0 71 1190
r 1.87168 1 0 ack 40 ------- 1 3.0 2.0 72 1196
r 1.88004 1 0 ack 40 ------- 1 3.0 2.0 73 1203
r 1.8884 1 0 ack 40 ------- 1 3.0 2.0 74 1210
r 1.89592 1 0 ack 40 ------- 1 3.0 2.0 75 1216
r 1.90428 1 0 ack 40 ------- 1 3.0 2.0 76 1223
r 1.9118 1 0 ack 40 ------- 1 3.0 2.0 77 1230
r 1.92016 1 0 ack 40 ------- 1 3.0 2.0 78 1237
r 1.92852 1 0 ack 40 ------- 1 3.0 2.0 79 1244
r 1.93604 1 0 ack 40 ------- 1 3.0 2.0 80 1250
r 1.9444 1 0 ack 40 ------- 1 3.0 2.0 81 1257
r 1.95192 1 0 ack 40 ------- 1 3.0 2.0 82 1264
r 1.96028 1 0 ack 40 ------- 1 3.0 2.0 83 1271
r 1.9678 1 0 ack 40 ------- 1 3.0 2.0 84 1277
r 1.97532 1 0 ack 40 ------- 1 3.0 2.0 85 1284
r 1.98368 1 0 ack 40 ------- 1 3.0 2.0 86 1291
r 1.9912 1 0 ack 40 ------- 1 3.0 2.0 87 1297
r 1.99956 1 0 ack 40 ------- 1 3.0 2.0 88 1304
r 2.00792 1 0 ack 40 ------- 1 3.0 2.0 89 1311
r 2.01544 1 0 ack 40 ------- 1 3.0 2.0 90 1318
r 2.0238 1 0 ack 40 ------- 1 3.0 2.0 91 1325
r 2.03216 1 0 ack 40 ------- 1 3.0 2.0 92 1333
r 2.04052 1 0 ack 40 ------- 1 3.0 2.0 93 1339
r 2.04888 1 0 ack 40 ------- 1 3.0 2.0 94 1346
r 2.0564 1 0 ack 40 ------- 1 3.0 2.0 95 1353
r 2.06476 1 0 ack 40 ------- 1 3.0 2.0 96 1360
r 2.07312 1 0 ack 40 ------- 1 3.0 2.0 97 1367
r 2.08148 1 0 ack 40 ------- 1 3.0 2.0 98 1374
r 2.08984 1 0 ack 40 ------- 1 3.0 2.0 99 1381
r 2.09736 1 0 ack 40 ------- 1 3.0 2.0 100 1387
r 2.10572 1 0 ack 40 ------- 1 3.0 2.0 101 1394
r 2.11408 1 0 ack 40 ------- 1 3.0 2.0 102 1401
r 2.12244 1 0 ack 40 ------- 1 3.0 2.0 103 1408
r 2.12996 1 0 ack 40 ------- 1 3.0 2.0 104 1414
r 2.13748 1 0 ack 40 ------- 1 3.0 2.0 105 1420
r 2.14584 1 0 ack 40 ------- 1 3.0 2.0 106 1427
r 2.1542 1 0 ack 40 ------- 1 3.0 2.0 107 1434
r 2.16256 1 0 ack 40 ------- 1 3.0 2.0 108 1441
r 2.17008 1 0 ack 40 ------- 1 3.0 2.0 109 1448
r 2.1776 1 0 ack 40 ------- 1 3.0 2.0 110 1454
r 2.18596 1 0 ack 40 ------- 1 3.0 2.0 111 1461
r 2.19432 1 0 ack 40 ------- 1 3.0 2.0 112 1468
r 2.20268 1 0 ack 40 ------- 1 3.0 2.0 113 1475
r 2.21104 1 0 ack 40 ------- 1 3.0 2.0 114 1483
r 2.2194 1 0 ack 40 ------- 1 3.0 2.0 115 1490
r 2.22776 1 0 ack 40 ------- 1 3.0 2.0 116 1497
r 2.23612 1 0 ack 40 ------- 1 3.0 2.0 117 1504
r 2.24364 1 0 ack 40 ------- 1 3.0 2.0 118 1510
r 2.252 1 0 ack 40 ------- 1 3.0 2.0 119 1517
r 2.25952 1 0 ack 40 ------- 1 3.0 2.0 120 1523
r 2.26788 1 0 ack 40 ------- 1 3.0 2.0 121 1530
r 2.27624 1 0 ack 40 ------- 1 3.0 2.0 122 1537
r 2.2846 1 0 ack 40 ------- 1 3.0 2.0 123 1545
r 2.29296 1 0 ack 40 ------- 1 3.0 2.0 124 1552
r 2.30048 1 0 ack 40 ------- 1 3.0 2.0 125 1558
r 2.30884 1 0 ack 40 ------- 1 3.0 2.0 126 1565
r 2.31636 1 0 ack 40 ------- 1 3.0 2.0 127 1571
r 2.32472 1 0 ack 40 ------- 1 3.0 2.0 128 1578
r 2.33224 1 0 ack 40 ------- 1 3.0 2.0 129 1584
r 2.3406 1 0 ack 40 ------- 1 3.0 2.0 130 1591
r 2.34896 1 0 ack 40 ------- 1 3.0 2.0 131 1598
r 2.35732 1 0 ack 40 ------- 1 3.0 2.0 132 1606
r 2.36568 1 0 ack 40 ------- 1 3.0 2.0 133 1613
r 2.37404 1 0 ack 40 ------- 1 3.0 2.0 134 1620
r 2.3824 1 0 ack 40 ------- 1 3.0 2.0 135 1627
r 2.38992 1 0 ack 40 ------- 1 3.0 2.0 136 1633
r 2.39828 1 0 ack 40 ------- 1 3.0 2.0 137 1640
r 2.4058 1 0 ack 40 ------- 1 3.0 2.0 138 1646
r 2.41416 1 0 ack 40 ------- 1 3.0 2.0 139 1653
r 2.42252 1 0 ack 40 ------- 1 3.0 2.0 140 1660
r 2.43088 1 0 ack 40 ------- 1 3.0 2.0 141 1668
r 2.43924 1 0 ack 40 ------- 1 3.0 2.0 142 1675
r 2.4476 1 0 ack 40 ------- 1 3.0 2.0 143 1682
r 2.45596 1 0 ack 40 ------- 1 3.0 2.0 144 1689
r 2.46264 1 0 ack 40 ------- 1 3.0 2.0 145 1694
r 2.471 1 0 ack 40 ------- 1 3.0 2.0 146 1701
r 2.47852 1 0 ack 40 ------- 1 3.0 2.0 147 1707
r 2.48688 1 0 ack 40 ------- 1 3.0 2.0 148 1714
r 2.49524 1 0 ack 40 ------- 1 3.0 2.0 149 1721
r 2.5036 1 0 ack 40 ------- 1 3.0 2.0 150 1729
r 2.51196 1 0 ack 40 ------- 1 3.0 2.0 151 1736
r 2.52032 1 0 ack 40 ------- 1 3.0 2.0 152 1743
r 2.52868 1 0 ack 40 ------- 1 3.0 2.0 153 1750
r 2.5362 1 0 ack 40 ------- 1 3.0 2.0 154 1757
r 2.54456 1 0 ack 40 ------- 1 3.0 2.0 155 1764
r 2.55208 1 0 ack 40 ------- 1 3.0 2.0 156 1769
r 2.56044 1 0 ack 40 ------- 1 3.0 2.0 157 1776
r 2.5688 1 0 ack 40 ------- 1 3.0 2.0 158 1783
r 2.57716 1 0 ack 40 ------- 1 3.0 2.0 159 1791
r 2.58552 1 0 ack 40 ------- 1 3.0 2.0 160 1798
r 2.59388 1 0 ack 40 ------- 1 3.0 2.0 161 1805
r 2.60224 1 0 ack 40 ------- 1 3.0 2.0 162 1812
r 2.60976 1 0 ack 40 ------- 1 3.0 2.0 163 1818
r 2.61812 1 0 ack 40 ------- 1 3.0 2.0 164 1825
r 2.62564 1 0 ack 40 ------- 1 3.0 2.0 165 1831
r 2.634 1 0 ack 40 ------- 1 3.0 2.0 166 1838
r 2.64152 1 0 ack 40 ------- 1 3.0 2.0 167 1844
r 2.64988 1 0 ack 40 ------- 1 3.0 2.0 168 1851
r 2.65824 1 0 ack 40 ------- 1 3.0 2.0 169 1858
r 2.6666 1 0 ack 40 ------- 1 3.0 2.0 170 1866
r 2.67496 1 0 ack 40 ------- 1 3.0 2.0 171 1873
r 2.68248 1 0 ack 40 ------- 1 3.0 2.0 172 1880
r 2.69084 1 0 ack 40 ------- 1 3.0 2.0 173 1887
r 2.69836 1 0 ack 40 ------- 1 3.0 2.0 174 1892
r 2.70672 1 0 ack 40 ------- 1 3.0 2.0 175 1899
r 2.71508 1 0 ack 40 ------- 1 3.0 2.0 176 1906
r 2.72344 1 0 ack 40 ------- 1 3.0 2.0 177 1914
r 2.7318 1 0 ack 40 ------- 1 3.0 2.0 178 1921
r 2.74016 1 0 ack 40 ------- 1 3.0 2.0 179 1928
r 2.74852 1 0 ack 40 ------- 1 3.0 2.0 180 1935
r 2.75604 1 0 ack 40 ------- 1 3.0 2.0 181 1941
r 2.7644 1 0 ack 40 ------- 1 3.0 2.0 182 1948
r 2.77192 1 0 ack 40 ------- 1 3.0 2.0 183 1954
r 2.78028 1 0 ack 40 ------- 1 3.0 2.0 184 1961
r 2.78864 1 0 ack 40 ------- 1 3.0 2.0 185 1968
r 2.797 1 0 ack 40 ------- 1 3.0 2.0 186 1976
r 2.80452 1 0 ack 40 ------- 1 3.0 2.0 187 1981
r 2.81288 1 0 ack 40 ------- 1 3.0 2.0 188 1989
r 2.82124 1 0 ack 40 ------- 1 3.0 2.0 189 1996
r 2.82876 1 0 ack 40 ------- 1 3.0 2.0 190 2002
r 2.83712 1 0 ack 40 ------- 1 3.0 2.0 191 2009
r 2.84464 1 0 ack 40 ------- 1 3.0 2.0 192 2015
r 2.853 1 0 ack 40 ------- 1 3.0 2.0 193 2022
r 2.86136 1 0 ack 40 ------- 1 3.0 2.0 194 2029
r 2.86972 1 0 ack 40 ------- 1 3.0 2.0 195 2037
r 2.87808 1 0 ack 40 ------- 1 3.0 2.0 196 2044
r 2.88644 1 0 ack 40 ------- 1 3.0 2.0 197 2051
r 2.8948 1 0 ack 40 ------- 1 3.0 2.0 198 2058
r 2.90232 1 0 ack 40 ------- 1 3.0 2.0 199 2064
r 2.91068 1 0 ack 40 ------- 1 3.0 2.0 200 2071
r 2.9182 1 0 ack 40 ------- 1 3.0 2.0 201 2077
r 2.92656 1 0 ack 40 ------- 1 3.0 2.0 202 2084
r 2.93492 1 0 ack 40 ------- 1 3.0 2.0 203 2091
r 2.94328 1 0 ack 40 ------- 1 3.0 2.0 204 2099
r 2.95164 1 0 ack 40 ------- 1 3.0 2.0 205 2106
r 2.96 1 0 ack 40 ------- 1 3.0 2.0 206 2113
r 2.96752 1 0 ack 40 ------- 1 3.0 2.0 207 2119
r 2.97504 1 0 ack 40 ------- 1 3.0 2.0 208 2125
r 2.9834 1 0 ack 40 ------- 1 3.0 2.0 209 2132
r 2.99092 1 0 ack 40 ------- 1 3.0 2.0 210 2138
r 2.99928 1 0 ack 40 ------- 1 3.0 2.0 211 2145
r 3.00764 1 0 ack 40 ------- 1 3.0 2.0 212 2152
r 3.016 1 0 ack 40 ------- 1 3.0 2.0 213 2160
r 3.02436 1 0 ack 40 ------- 1 3.0 2.0 214 2167
r 3.03272 1 0 ack 40 ------- 1 3.0 2.0 215 2174
r 3.04024 1 0 ack 40 ------- 1 3.0 2.0 216 2181
r 3.0486 1 0 ack 40 ------- 1 3.0 2.0 217 2188
r 3.05696 1 0 ack 40 ------- 1 3.0 2.0 218 2195
r 3.06448 1 0 ack 40 ------- 1 3.0 2.0 219 2200
r 3.07284 1 0 ack 40 ------- 1 3.0 2.0 220 2207
r 3.0812 1 0 ack 40 ------- 1 3.0 2.0 221 2215
r 3.08956 1 0 ack 40 ------- 1 3.0 2.0 222 2222
r 3.09792 1 0 ack 40 ------- 1 3.0 2.0 223 2229
r 3.10628 1 0 ack 40 ------- 1 3.0 2.0 224 2236
r 3.1138 1 0 ack 40 ------- 1 3.0 2.0 225 2242
r 3.12216 1 0 ack 40 ------- 1 3.0 2.0 226 2249
r 3.12968 1 0 ack 40 ------- 1 3.0 2.0 227 2255
r 3.13804 1 0 ack 40 ------- 1 3.0 2.0 228 2262
r 3.1464 1 0 ack 40 ------- 1 3.0 2.0 229 2269
r 3.15392 1 0 ack 40 ------- 1 3.0 2.0 230 2275
r 3.16228 1 0 ack 40 ------- 1 3.0 2.0 231 2282
r 3.17064 1 0 ack 40 ------- 1 3.0 2.0 232 2290
r 3.179 1 0 ack 40 ------- 1 3.0 2.0 233 2297
r 3.18652 1 0 ack 40 ------- 1 3.0 2.0 234 2303
r 3.19488 1 0 ack 40 ------- 1 3.0 2.0 235 2311
r 3.2024 1 0 ack 40 ------- 1 3.0 2.0 236 2316
r 3.21076 1 0 ack 40 ------- 1 3.0 2.0 237 2323
r 3.21912 1 0 ack 40 ------- 1 3.0 2.0 238 2330
r 3.22748 1 0 ack 40 ------- 1 3.0 2.0 239 2338
r 3.23584 1 0 ack 40 ------- 1 3.0 2.0 240 2345
r 3.2442 1 0 ack 40 ------- 1 3.0 2.0 241 2352
r 3.25256 1 0 ack 40 ------- 1 3.0 2.0 242 2359
r 3.26008 1 0 ack 40 ------- 1 3.0 2.0 243 2365
r 3.26844 1 0 ack 40 ------- 1 3.0 2.0 244 2372
r 3.27596 1 0 ack 40 ------- 1 3.0 2.0 245 2378
r 3.28432 1 0 ack 40 ------- 1 3.0 2.0 246 2385
r 3.29268 1 0 ack 40 ------- 1 3.0 2.0 247 2392
r 3.30104 1 0 ack 40 ------- 1 3.0 2.0 248 2400
r 3.3094 1 0 ack 40 ------- 1 3.0 2.0 249 2407
r 3.31692 1 0 ack 40 ------- 1 3.0 2.0 250 2413
r 3.32528 1 0 ack 40 ------- 1 3.0 2.0 251 2420
r 3.3328 1 0 ack 40 ------- 1 3.0 2.0 252 2426
r 3.34116 1 0 ack 40 ------- 1 3.0 2.0 253 2433
r 3.34868 1 0 ack 40 ------- 1 3.0 2.0 254 2439
r 3.35704 1 0 ack 40 ------- 1 3.0 2.0 255 2446
r 3.3654 1 0 ack 40 ------- 1 3.0 2.0 256 2453
r 3.37376 1 0 ack 40 ------- 1 3.0 2.0 257 2461
r 3.38212 1 0 ack 40 ------- 1 3.0 2.0 258 2468
r 3.39048 1 0 ack 40 ------- 1 3.0 2.0 259 2475
r 3.39884 1 0 ack 40 ------- 1 3.0 2.0 260 2482
r 3.40636 1 0 ack 40 ------- 1 3.0 2.0 261 2488
r 3.41472 1 0 ack 40 ------- 1 3.0 2.0 262 2495
r 3.42224 1 0 ack 40 ------- 1 3.0 2.0 263 2501
r 3.4306 1 0 ack 40 ------- 1 3.0 2.0 264 2508
r 3.43896 1 0 ack 40 ------- 1 3.0 2.0 265 2515
r 3.44732 1 0 ack 40 ------- 1 3.0 2.0 266 2523
r 3.45568 1 0 ack 40 ------- 1 3.0 2.0 267 2530
r 3.46404 1 0 ack 40 ------- 1 3.0 2.0 268 2537
r 3.4724 1 0 ack 40 ------- 1 3.0 2.0 269 2544
r 3.47908 1 0 ack 40 ------- 1 3.0 2.0 270 2549
r 3.48744 1 0 ack 40 ------- 1 3.0 2.0 271 2556
r 3.4958 1 0 ack 40 ------- 1 3.0 2.0 272 2563
r 3.50332 1 0 ack 40 ------- 1 3.0 2.0 273 2569
r 3.51168 1 0 ack 40 ------- 1 3.0 2.0 274 2576
r 3.52004 1 0 ack 40 ------- 1 3.0 2.0 275 2584
r 3.5284 1 0 ack 40 ------- 1 3.0 2.0 276 2591
r 3.53676 1 0 ack 40 ------- 1 3.0 2.0 277 2598
r 3.54512 1 0 ack 40 ------- 1 3.0 2.0 278 2605
r 3.55264 1 0 ack 40 ------- 1 3.0 2.0 279 2612
r 3.561 1 0 ack 40 ------- 1 3.0 2.0 280 2619
r 3.56852 1 0 ack 40 ------- 1 3.0 2.0 281 2624
r 3.57688 1 0 ack 40 ------- 1 3.0 2.0 282 2631
r 3.58524 1 0 ack 40 ------- 1 3.0 2.0 283 2638
r 3.5936 1 0 ack 40 ------- 1 3.0 2.0 284 2646
r 3.60196 1 0 ack 40 ------- 1 3.0 2.0 285 2653
r 3.61032 1 0 ack 40 ------- 1 3.0 2.0 286 2660
r 3.61868 1 0 ack 40 ------- 1 3.0 2.0 287 2667
r 3.6262 1 0 ack 40 ------- 1 3.0 2.0 288 2673
r 3.63456 1 0 ack 40 ------- 1 3.0 2.0 289 2680
r 3.64208 1 0 ack 40 ------- 1 3.0 2.0 290 2686
r 3.65044 1 0 ack 40 ------- 1 3.0 2.0 291 2693
r 3.6588 1 0 ack 40 ------- 1 3.0 2.0 292 2700
r 3.66632 1 0 ack 40 ------- 1 3.0 2.0 293 2706
r 3.67468 1 0 ack 40 ------- 1 3.0 2.0 294 2713
r 3.68304 1 0 ack 40 ------- 1 3.0 2.0 295 2721
r 3.6914 1 0 ack 40 ------- 1 3.0 2.0 296 2728
r 3.69892 1 0 ack 40 ------- 1 3.0 2.0 297 2734
r 3.70728 1 0 ack 40 ------- 1 3.0 2.0 298 2742
r 3.7148 1 0 ack 40 ------- 1 3.0 2.0 299 2747
r 3.72316 1 0 ack 40 ------- 1 3.0 2.0 300 2754
r 3.73152 1 0 ack 40 ------- 1 3.0 2.0 301 2761
r 3.73988 1 0 ack 40 ------- 1 3.0 2.0 302 2769
r 3.74824 1 0 ack 40 ------- 1 3.0 2.0 303 2776
r 3.7566 1 0 ack 40 ------- 1 3.0 2.0 304 2783
r 3.76496 1 0 ack 40 ------- 1 3.0 2.0 305 2790
r 3.77248 1 0 ack 40 ------- 1 3.0 2.0 306 2796
r 3.78084 1 0 ack 40 ------- 1 3.0 2.0 307 2803
r 3.78836 1 0 ack 40 ------- 1 3.0 2.0 308 2809
r 3.79672 1 0 ack 40 ------- 1 3.0 2.0 309 2816
r 3.80508 1 0 ack 40 ------- 1 3.0 2.0 310 2823
r 3.81344 1 0 ack 40 ------- 1 3.0 2.0 311 2831
r 3.8218 1 0 ack 40 ------- 1 3.0 2.0 312 2838
r 3.82932 1 0 ack 40 ------- 1 3.0 2.0 313 2844
r 3.83768 1 0 ack 40 ------- 1 3.0 2.0 314 2851
r 3.8452 1 0 ack 40 ------- 1 3.0 2.0 315 2857
r 3.85356 1 0 ack 40 ------- 1 3.0 2.0 316 2864
r 3.86108 1 0 ack 40 ------- 1 3.0 2.0 317 2870
r 3.86944 1 0 ack 40 ------- 1 3.0 2.0 318 2877
r 3.8778 1 0 ack 40 ------- 1 3.0 2.0 319 2884
r 3.88616 1 0 ack 40 ------- 1 3.0 2.0 320 2892
r 3.89452 1 0 ack 40 ------- 1 3.0 2.0 321 2899
r 3.90288 1 0 ack 40 ------- 1 3.0 2.0 322 2906
r 3.91124 1 0 ack 40 ------- 1 3.0 2.0 323 2913
r 3.91876 1 0 ack 40 ------- 1 3.0 2.0 324 2919
r 3.92712 1 0 ack 40 ------- 1 3.0 2.0 325 2926
r 3.93464 1 0 ack 40 ------- 1 3.0 2.0 326 2932
r 3.943 1 0 ack 40 ------- 1 3.0 2.0 327 2939
r 3.95136 1 0 ack 40 ------- 1 3.0 2.0 328 2946
r 3.95972 1 0 ack 40 ------- 1 3.0 2.0 329 2954
r 3.96808 1 0 ack 40 ------- 1 3.0 2.0 330 2961
r 3.97644 1 0 ack 40 ------- 1 3.0 2.0 331 2968
r 3.9848 1 0 ack 40 ------- 1 3.0 2.0 332 2975
r 3.99148 1 0 ack 40 ------- 1 3.0 2.0 333 2980
r 3.99984 1 0 ack 40 ------- 1 3.0 2.0 334 2987
r 4.0082 1 0 ack 40 ------- 1 3.0 2.0 335 2994
r 4.01572 1 0 ack 40 ------- 1 3.0 2.0 336 3000
r 4.02408 1 0 ack 40 ------- 1 3.0 2.0 337 3007
r 4.03244 1 0 ack 40 ------- 1 3.0 2.0 338 3015
r 4.0408 1 0 ack 40 ------- 1 3.0 2.0 339 3022
r 4.04916 1 0 ack 40 ------- 1 3.0 2.0 340 3029
r 4.05752 1 0 ack 40 ------- 1 3.0 2.0 341 3036
r 4.06504 1 0 ack 40 ------- 1 3.0 2.0 342 3043
r 4.0734 1 0 ack 40 ------- 1 3.0 2.0 343 3050
r 4.08092 1 0 ack 40 ------- 1 3.0 2.0 344 3055
r 4.08928 1 0 ack 40 ------- 1 3.0 2.0 345 3062
r 4.09764 1 0 ack 40 ------- 1 3.0 2.0 346 3069
r 4.106 1 0 ack 40 ------- 1 3.0 2.0 347 3077
r 4.11436 1 0 ack 40 ------- 1 3.0 2.0 348 3084
r 4.12272 1 0 ack 40 ------- 1 3.0 2.0 349 3091
r 4.13108 1 0 ack 40 ------- 1 3.0 2.0 350 3098
r 4.1386 1 0 ack 40 ------- 1 3.0 2.0 351 3104
r 4.14696 1 0 ack 40 ------- 1 3.0 2.0 352 3111
r 4.15448 1 0 ack 40 ------- 1 3.0 2.0 353 3117
r 4.16284 1 0 ack 40 ------- 1 3.0 2.0 354 3124
r 4.1712 1 0 ack 40 ------- 1 3.0 2.0 355 3131
r 4.17872 1 0 ack 40 ------- 1 3.0 2.0 356 3137
r 4.18708 1 0 ack 40 ------- 1 3.0 2.0 357 3144
r 4.19544 1 0 ack 40 ------- 1 3.0 2.0 358 3152
r 4.2038 1 0 ack 40 ------- 1 3.0 2.0 359 3159
r 4.21132 1 0 ack 40 ------- 1 3.0 2.0 360 3165
r 4.21968 1 0 ack 40 ------- 1 3.0 2.0 361 3173
r 4.2272 1 0 ack 40 ------- 1 3.0 2.0 362 3178
r 4.23556 1 0 ack 40 ------- 1 3.0 2.0 363 3185
r 4.24392 1 0 ack 40 ------- 1 3.0 2.0 364 3192
r 4.25228 1 0 ack 40 ------- 1 3.0 2.0 365 3200
r 4.26064 1 0 ack 40 ------- 1 3.0 2.0 366 3207
r 4.269 1 0 ack 40 ------- 1 3.0 2.0 367 3214
r 4.27736 1 0 ack 40 ------- 1 3.0 2.0 368 3221
r 4.28488 1 0 ack 40 ------- 1 3.0 2.0 369 3227
r 4.29324 1 0 ack 40 ------- 1 3.0 2.0 370 3234
r 4.30076 1 0 ack 40 ------- 1 3.0 2.0 371 3240
r 4.30912 1 0 ack 40 ------- 1 3.0 2.0 372 3247
r 4.31748 1 0 ack 40 ------- 1 3.0 2.0 373 3254
r 4.32584 1 0 ack 40 ------- 1 3.0 2.0 374 3262
r 4.3342 1 0 ack 40 ------- 1 3.0 2.0 375 3269
r 4.34172 1 0 ack 40 ------- 1 3.0 2.0 376 3275
r 4.35008 1 0 ack 40 ------- 1 3.0 2.0 377 3282
r 4.3576 1 0 ack 40 ------- 1 3.0 2.0 378 3288
r 4.36596 1 0 ack 40 ------- 1 3.0 2.0 379 3295
r 4.37348 1 0 ack 40 ------- 1 3.0 2.0 380 3301
r 4.38184 1 0 ack 40 ------- 1 3.0 2.0 381 3308
r 4.3902 1 0 ack 40 ------- 1 3.0 2.0 382 3315
r 4.39856 1 0 ack 40 ------- 1 3.0 2.0 383 3323
r 4.40692 1 0 ack 40 ------- 1 3.0 2.0 384 3330
r 4.41528 1 0 ack 40 ------- 1 3.0 2.0 385 3337
r 4.42364 1 0 ack 40 ------- 1 3.0 2.0 386 3344
r 4.43116 1 0 ack 40 ------- 1 3.0 2.0 387 3350
r 4.43952 1 0 ack 40 ------- 1 3.0 2.0 388 3357
r 4.44704 1 0 ack 40 ------- 1 3.0 2.0 389 3363
r 4.4554 1 0 ack 40 ------- 1 3.0 2.0 390 3370
r 4.46376 1 0 ack 40 ------- 1 3.0 2.0 391 3377
r 4.47212 1 0 ack 40 ------- 1 3.0 2.0 392 3385
r 4.48048 1 0 ack 40 ------- 1 3.0 2.0 393 3392
r 4.48884 1 0 ack 40 ------- 1 3.0 2.0 394 3399
r 4.4972 1 0 ack 40 ------- 1 3.0 2.0 395 3406
r 4.50388 1 0 ack 40 ------- 1 3.0 2.0 396 3411
r 4.51224 1 0 ack 40 ------- 1 3.0 2.0 397 3418
r 4.5206 1 0 ack 40 ------- 1 3.0 2.0 398 3425
r 4.52812 1 0 ack 40 ------- 1 3.0 2.0 399 3431
r 4.53648 1 0 ack 40 ------- 1 3.0 2.0 400 3438
r 4.54484 1 0 ack 40 ------- 1 3.0 2.0 401 3446
r 4.5532 1 0 ack 40 ------- 1 3.0 2.0 402 3453
r 4.56156 1 0 ack 40 ------- 1 3.0 2.0 403 3460
r 4.56992 1 0 ack 40 ------- 1 3.0 2.0 404 3467
r 4.57744 1 0 ack 40 ------- 1 3.0 2.0 405 3474
r 4.5858 1 0 ack 40 ------- 1 3.0 2.0 406 3481
r 4.59332 1 0 ack 40 ------- 1 3.0 2.0 407 3486
r 4.60168 1 0 ack 40 ------- 1 3.0 2.0 408 3493
r 4.61004 1 0 ack 40 ------- 1 3.0 2.0 409 3500
r 4.6184 1 0 ack 40 ------- 1 3.0 2.0 410 3508
r 4.62676 1 0 ack 40 ------- 1 3.0 2.0 411 3515
r 4.63512 1 0 ack 40 ------- 1 3.0 2.0 412 3522
r 4.64348 1 0 ack 40 ------- 1 3.0 2.0 413 3529
r 4.651 1 0 ack 40 ------- 1 3.0 2.0 414 3535
r 4.65936 1 0 ack 40 ------- 1 3.0 2.0 415 3542
r 4.66688 1 0 ack 40 ------- 1 3.0 2.0 416 3548
r 4.67524 1 0 ack 40 ------- 1 3.0 2.0 417 3555
r 4.6836 1 0 ack 40 ------- 1 3.0 2.0 418 3562
r 4.69112 1 0 ack 40 ------- 1 3.0 2.0 419 3568
r 4.69948 1 0 ack 40 ------- 1 3.0 2.0 420 3575
r 4.70784 1 0 ack 40 ------- 1 3.0 2.0 421 3583
r 4.7162 1 0 ack 40 ------- 1 3.0 2.0 422 3590
r 4.72372 1 0 ack 40 ------- 1 3.0 2.0 423 3596
r 4.73208 1 0 ack 40 ------- 1 3.0 2.0 424 3604
r 4.7396 1 0 ack 40 ------- 1 3.0 2.0 425 3609
r 4.74796 1 0 ack 40 ------- 1 3.0 2.0 426 3616
r 4.75632 1 0 ack 40 ------- 1 3.0 2.0 427 3623
r 4.76468 1 0 ack 40 ------- 1 3.0 2.0 428 3631
r 4.77304 1 0 ack 40 ------- 1 3.0 2.0 429 3638
r 4.7814 1 0 ack 40 ------- 1 3.0 2.0 430 3645
r 4.78976 1 0 ack 40 ------- 1 3.0 2.0 431 3652
r 4.79728 1 0 ack 40 ------- 1 3.0 2.0 432 3658
r 4.80564 1 0 ack 40 ------- 1 3.0 2.0 433 3665
r 4.81316 1 0 ack 40 ------- 1 3.0 2.0 434 3671
r 4.82152 1 0 ack 40 ------- 1 3.0 2.0 435 3678
r 4.82988 1 0 ack 40 ------- 1 3.0 2.0 436 3685
r 4.83824 1 0 ack 40 ------- 1 3.0 2.0 437 3693
r 4.8466 1 0 ack 40 ------- 1 3.0 2.0 438 3700
r 4.85412 1 0 ack 40 ------- 1 3.0 2.0 439 3706
r 4.86248 1 0 ack 40 ------- 1 3.0 2.0 440 3713
r 4.87 1 0 ack 40 ------- 1 3.0 2.0 441 3719
r 4.87836 1 0 ack 40 ------- 1 3.0 2.0 442 3726
r 4.88588 1 0 ack 40 ------- 1 3.0 2.0 443 3732
r 4.89424 1 0 ack 40 ------- 1 3.0 2.0 444 3739
r 4.9026 1 0 ack 40 ------- 1 3.0 2.0 445 3746
r 4.91096 1 0 ack 40 ------- 1 3.0 2.0 446 3754
r 4.91932 1 0 ack 40 ------- 1 3.0 2.0 447 3761
r 4.92768 1 0 ack 40 ------- 1 3.0 2.0 448 3768
r 4.93604 1 0 ack 40 ------- 1 3.0 2.0 449 3775
r 4.94356 1 0 ack 40 ------- 1 3.0 2.0 450 3781
r 4.95192 1 0 ack 40 ------- 1 3.0 2.0 451 3788
r 4.95944 1 0 ack 40 ------- 1 3.0 2.0 452 3794
r 4.9678 1 0 ack 40 ------- 1 3.0 2.0 453 3801
r 4.97616 1 0 ack 40 ------- 1 3.0 2.0 454 3808
r 4.98452 1 0 ack 40 ------- 1 3.0 2.0 455 3816
r 4.99288 1 0 ack 40 ------- 1 3.0 2.0 456 3823
r 5.00124 1 0 ack 40 ------- 1 3.0 2.0 457 3830
r 5.0096 1 0 ack 40 ------- 1 3.0 2.0 458 3837
r 5.01628 1 0 ack 40 ------- 1 3.0 2.0 459 3842
r 5.02464 1 0 ack 40 ------- 1 3.0 2.0 460 3849
r 5.033 1 0 ack 40 ------- 1 3.0 2.0 461 3856
r 5.04052 1 0 ack 40 ------- 1 3.0 2.0 462 3862
r 5.04888 1 0 ack 40 ------- 1 3.0 2.0 463 3869
r 5.05724 1 0 ack 40 ------- 1 3.0 2.0 464 3877
r 5.0656 1 0 ack 40 ------- 1 3.0 2.0 465 3884
r 5.07396 1 0 ack 40 ------- 1 3.0 2.0 466 3891
r 5.08232 1 0 ack 40 ------- 1 3.0 2.0 467 3898
r 5.08984 1 0 ack 40 ------- 1 3.0 2.0 468 3905
r 5.0982 1 0 ack 40 ------- 1 3.0 2.0 469 3912
r 5.10572 1 0 ack 40 ------- 1 3.0 2.0 470 3917
r 5.11408 1 0 ack 40 ------- 1 3.0 2.0 471 3924
r 5.12244 1 0 ack 40 ------- 1 3.0 2.0 472 3931
r 5.1308 1 0 ack 40 ------- 1 3.0 2.0 473 3939
r 5.13916 1 0 ack 40 ------- 1 3.0 2.0 474 3946
r 5.14752 1 0 ack 40 ------- 1 3.0 2.0 475 3953
r 5.15588 1 0 ack 40 ------- 1 3.0 2.0 476 3960
r 5.1634 1 0 ack 40 ------- 1 3.0 2.0 477 3966
r 5.17176 1 0 ack 40 ------- 1 3.0 2.0 478 3973
r 5.17928 1 0 ack 40 ------- 1 3.0 2.0 479 3979
r 5.18764 1 0 ack 40 ------- 1 3.0 2.0 480 3986
r 5.196 1 0 ack 40 ------- 1 3.0 2.0 481 3993
r 5.20352 1 0 ack 40 ------- 1 3.0 2.0 482 3999
r 5.21188 1 0 ack 40 ------- 1 3.0 2.0 483 4006
r 5.22024 1 0 ack 40 ------- 1 3.0 2.0 484 4014
r 5.2286 1 0 ack 40 ------- 1 3.0 2.0 485 4021
r 5.23612 1 0 ack 40 ------- 1 3.0 2.0 486 4027
r 5.24448 1 0 ack 40 ------- 1 3.0 2.0 487 4035
r 5.252 1 0 ack 40 ------- 1 3.0 2.0 488 4040
r 5.26036 1 0 ack 40 ------- 1 3.0 2.0 489 4047
r 5.26872 1 0 ack 40 ------- 1 3.0 2.0 490 4054
r 5.27708 1 0 ack 40 ------- 1 3.0 2.0 491 4062
r 5.28544 1 0 ack 40 ------- 1 3.0 2.0 492 4069
r 5.2938 1 0 ack 40 ------- 1 3.0 2.0 493 4076
r 5.30216 1 0 ack 40 ------- 1 3.0 2.0 494 4083
r 5.30968 1 0 ack 40 ------- 1 3.0 2.0 495 4089
r 5.31804 1 0 ack 40 ------- 1 3.0 2.0 496 4096
r 5.32556 1 0 ack 40 ------- 1 3.0 2.0 497 4102
r 5.33392 1 0 ack 40 ------- 1 3.0 2.0 498 4109
r 5.34228 1 0 ack 40 ------- 1 3.0 2.0 499 4116
r 5.35064 1 0 ack 40 ------- 1 3.0 2.0 500 4124
r 5.359 1 0 ack 40 ------- 1 3.0 2.0 501 4131
r 5.36652 1 0 ack 40 ------- 1 3.0 2.0 502 4137
r 5.37488 1 0 ack 40 ------- 1 3.0 2.0 503 4144
r 5.3824 1 0 ack 40 ------- 1 3.0 2.0 504 4150
r 5.39076 1 0 ack 40 ------- 1 3.0 2.0 505 4157
r 5.39828 1 0 ack 40 ------- 1 3.0 2.0 506 4163
r 5.40664 1 0 ack 40 ------- 1 3.0 2.0 507 4170
r 5.415 1 0 ack 40 ------- 1 3.0 2.0 508 4177
r 5.42336 1 0 ack 40 ------- 1 3.0 2.0 509 4185
r 5.43172 1 0 ack 40 ------- 1 3.0 2.0 510 4192
r 5.44008 1 0 ack 40 ------- 1 3.0 2.0 511 4199
r 5.44844 1 0 ack 40 ------- 1 3.0 2.0 512 4206
r 5.45596 1 0 ack 40 ------- 1 3.0 2.0 513 4212
r 5.46432 1 0 ack 40 ------- 1 3.0 2.0 514 4219
r 5.47184 1 0 ack 40 ------- 1 3.0 2.0 515 4225
r 5.4802 1 0 ack 40 ------- 1 3.0 2.0 516 4232
r 5.48856 1 0 ack 40 ------- 1 3.0 2.0 517 4239
r 5.49692 1 0 ack 40 ------- 1 3.0 2.0 518 4247
r 5.50528 1 0 ack 40 ------- 1 3.0 2.0 519 4254
r 5.51364 1 0 ack 40 ------- 1 3.0 2.0 520 4261
r 5.522 1 0 ack 40 ------- 1 3.0 2.0 521 4268
r 5.52868 1 0 ack 40 ------- 1 3.0 2.0 522 4273
r 5.53704 1 0 ack 40 ------- 1 3.0 2.0 523 4280
r 5.5454 1 0 ack 40 ------- 1 3.0 2.0 524 4287
r 5.55292 1 0 ack 40 ------- 1 3.0 2.0 525 4293
r 5.56128 1 0 ack 40 ------- 1 3.0 2.0 526 4300
r 5.56964 1 0 ack 40 ------- 1 3.0 2.0 527 4308
r 5.578 1 0 ack 40 ------- 1 3.0 2.0 528 4315
r 5.58636 1 0 ack 40 ------- 1 3.0 2.0 529 4322
r 5.59472 1 0 ack 40 ------- 1 3.0 2.0 530 4329
r 5.60224 1 0 ack 40 ------- 1 3.0 2.0 531 4336
r 5.6106 1 0 ack 40 ------- 1 3.0 2.0 532 4343
r 5.61812 1 0 ack 40 ------- 1 3.0 2.0 533 4348
r 5.62648 1 0 ack 40 ------- 1 3.0 2.0 534 4355
r 5.63484 1 0 ack 40 ------- 1 3.0 2.0 535 4362
r 5.6432 1 0 ack 40 ------- 1 3.0 2.0 536 4370
r 5.65156 1 0 ack 40 ------- 1 3.0 2.0 537 4377
r 5.65992 1 0 ack 40 ------- 1 3.0 2.0 538 4384
r 5.66828 1 0 ack 40 ------- 1 3.0 2.0 539 4391
r 5.6758 1 0 ack 40 ------- 1 3.0 2.0 540 4397
r 5.68416 1 0 ack 40 ------- 1 3.0 2.0 541 4404
r 5.69168 1 0 ack 40 ------- 1 3.0 2.0 542 4410
r 5.70004 1 0 ack 40 ------- 1 3.0 2.0 543 4417
r 5.7084 1 0 ack 40 ------- 1 3.0 2.0 544 4424
r 5.71592 1 0 ack 40 ------- 1 3.0 2.0 545 4430
r 5.72428 1 0 ack 40 ------- 1 3.0 2.0 546 4437
r 5.73264 1 0 ack 40 ------- 1 3.0 2.0 547 4445
r 5.741 1 0 ack 40 ------- 1 3.0 2.0 548 4452
r 5.74852 1 0 ack 40 ------- 1 3.0 2.0 549 4458
r 5.75688 1 0 ack 40 ------- 1 3.0 2.0 550 4466
r 5.7644 1 0 ack 40 ------- 1 3.0 2.0 551 4471
r 5.77276 1 0 ack 40 ------- 1 3.0 2.0 552 4478
r 5.78112 1 0 ack 40 ------- 1 3.0 2.0 553 4485
r 5.78948 1 0 ack 40 ------- 1 3.0 2.0 554 4493
r 5.79784 1 0 ack 40 ------- 1 3.0 2.0 555 4500
r 5.8062 1 0 ack 40 ------- 1 3.0 2.0 556 4507
r 5.81456 1 0 ack 40 ------- 1 3.0 2.0 557 4514
r 5.82208 1 0 ack 40 ------- 1 3.0 2.0 558 4520
r 5.83044 1 0 ack 40 ------- 1 3.0 2.0 559 4527
r 5.83796 1 0 ack 40 ------- 1 3.0 2.0 560 4533
r 5.84632 1 0 ack 40 ------- 1 3.0 2.0 561 4540
r 5.85468 1 0 ack 40 ------- 1 3.0 2.0 562 4547
r 5.86304 1 0 ack 40 ------- 1 3.0 2.0 563 4555
r 5.8714 1 0 ack 40 ------- 1 3.0 2.0 564 4562
r 5.87892 1 0 ack 40 ------- 1 3.0 2.0 565 4568
r 5.88728 1 0 ack 40 ------- 1 3.0 2.0 566 4575
r 5.8948 1 0 ack 40 ------- 1 3.0 2.0 567 4581
r 5.90316 1 0 ack 40 ------- 1 3.0 2.0 568 4588
r 5.91068 1 0 ack 40 ------- 1 3.0 2.0 569 4594
r 5.91904 1 0 ack 40 ------- 1 3.0 2.0 570 4601
r 5.9274 1 0 ack 40 ------- 1 3.0 2.0 571 4608
r 5.93576 1 0 ack 40 ------- 1 3.0 2.0 572 4616
r 5.94412 1 0 ack 40 ------- 1 3.0 2.0 573 4623
r 5.95248 1 0 ack 40 ------- 1 3.0 2.0 574 4630
r 5.96084 1 0 ack 40 ------- 1 3.0 2.0 575 4637
r 5.96836 1 0 ack 40 ------- 1 3.0 2.0 576 4643
r 5.97672 1 0 ack 40 ------- 1 3.0 2.0 577 4650
r 5.98424 1 0 ack 40 ------- 1 3.0 2.0 578 4656
r 5.9926 1 0 ack 40 ------- 1 3.0 2.0 579 4663
r 6.00096 1 0 ack 40 ------- 1 3.0 2.0 580 4670
r 6.00932 1 0 ack 40 ------- 1 3.0 2.0 581 4678
r 6.01768 1 0 ack 40 ------- 1 3.0 2.0 582 4685
r 6.02604 1 0 ack 40 ------- 1 3.0 2.0 583 4692
r 6.0344 1 0 ack 40 ------- 1 3.0 2.0 584 4699
r 6.04108 1 0 ack 40 ------- 1 3.0 2.0 585 4704
r 6.04944 1 0 ack 40 ------- 1 3.0 2.0 586 4711
r 6.0578 1 0 ack 40 ------- 1 3.0 2.0 587 4718
r 6.06532 1 0 ack 40 ------- 1 3.0 2.0 588 4724
r 6.07368 1 0 ack 40 ------- 1 3.0 2.0 589 4731
r 6.08204 1 0 ack 40 ------- 1 3.0 2.0 590 4739
r 6.0904 1 0 ack 40 ------- 1 3.0 2.0 591 4746
r 6.09876 1 0 ack 40 ------- 1 3.0 2.0 592 4753
r 6.10712 1 0 ack 40 ------- 1 3.0 2.0 593 4760
r 6.11464 1 0 ack 40 ------- 1 3.0 2.0 594 4767
r 6.123 1 0 ack 40 ------- 1 3.0 2.0 595 4774
r 6.13052 1 0 ack 40 ------- 1 3.0 2.0 596 4779
r 6.13888 1 0 ack 40 ------- 1 3.0 2.0 597 4786
r 6.14724 1 0 ack 40 ------- 1 3.0 2.0 598 4793
r 6.1556 1 0 ack 40 ------- 1 3.0 2.0 599 4801
r 6.16396 1 0 ack 40 ------- 1 3.0 2.0 600 4808
r 6.17232 1 0 ack 40 ------- 1 3.0 2.0 601 4815
r 6.18068 1 0 ack 40 ------- 1 3.0 2.0 602 4822
r 6.1882 1 0 ack 40 ------- 1 3.0 2.0 603 4828
r 6.19656 1 0 ack 40 ------- 1 3.0 2.0 604 4835
r 6.20408 1 0 ack 40 ------- 1 3.0 2.0 605 4841
r 6.21244 1 0 ack 40 ------- 1 3.0 2.0 606 4848
r 6.2208 1 0 ack 40 ------- 1 3.0 2.0 607 4855
r 6.22832 1 0 ack 40 ------- 1 3.0 2.0 608 4861
r 6.23668 1 0 ack 40 ------- 1 3.0 2.0 609 4868
r 6.24504 1 0 ack 40 ------- 1 3.0 2.0 610 4876
r 6.2534 1 0 ack 40 ------- 1 3.0 2.0 611 4883
r 6.26092 1 0 ack 40 ------- 1 3.0 2.0 612 4889
r 6.26928 1 0 ack 40 ------- 1 3.0 2.0 613 4897
r 6.2768 1 0 ack 40 ------- 1 3.0 2.0 614 4902
r 6.28516 1 0 ack 40 ------- 1 3.0 2.0 615 4909
r 6.29352 1 0 ack 40 ------- 1 3.0 2.0 616 4916
r 6.30188 1 0 ack 40 ------- 1 3.0 2.0 617 4924
r 6.31024 1 0 ack 40 ------- 1 3.0 2.0 618 4931
r 6.3186 1 0 ack 40 ------- 1 3.0 2.0 619 4938
r 6.32696 1 0 ack 40 ------- 1 3.0 2.0 620 4945
r 6.33448 1 0 ack 40 ------- 1 3.0 2.0 621 4951
r 6.34284 1 0 ack 40 ------- 1 3.0 2.0 622 4958
r 6.35036 1 0 ack 40 ------- 1 3.0 2.0 623 4964
r 6.35872 1 0 ack 40 ------- 1 3.0 2.0 624 4971
r 6.36708 1 0 ack 40 ------- 1 3.0 2.0 625 4978
r 6.37544 1 0 ack 40 ------- 1 3.0 2.0 626 4986
r 6.3838 1 0 ack 40 ------- 1 3.0 2.0 627 4993
r 6.39132 1 0 ack 40 ------- 1 3.0 2.0 628 4999
r 6.39968 1 0 ack 40 ------- 1 3.0 2.0 629 5006
r 6.4072 1 0 ack 40 ------- 1 3.0 2.0 630 5012