+ 0.1 4 0 cbr 210 ------- 2 4.0 5.0 0 0
- 0.1 4 0 cbr 210 ------- 2 4.0 5.0 0 0
+ 0.10168 4 0 cbr 210 ------- 2 4.0 5.0 1 1
- 0.10168 4 0 cbr 210 ------- 2 4.0 5.0 1 1
+ 0.10336 4 0 cbr 210 ------- 2 4.0 5.0 2 2
- 0.10336 4 0 cbr 210 ------- 2 4.0 5.0 2 2
+ 0.10504 4 0 cbr 210 ------- 2 4.0 5.0 3 3
- 0.10504 4 0 cbr 210 ------- 2 4.0 5.0 3 3
+ 0.10672 4 0 cbr 210 ------- 2 4.0 5.0 4 4
- 0.10672 4 0 cbr 210 ------- 2 4.0 5.0 4 4
+ 0.1084 4 0 cbr 210 ------- 2 4.0 5.0 5 5
- 0.1084 4 0 cbr 210 ------- 2 4.0 5.0 5 5
+ 0.11008 4 0 cbr 210 ------- 2 4.0 5.0 6 6
- 0.11008 4 0 cbr 210 ------- 2 4.0 5.0 6 6
r 0.11112 4 0 cbr 210 ------- 2 4.0 5.0 0 0
+ 0.11112 0 1 cbr 210 ------- 2 4.0 5.0 0 0
- 0.11112 0 1 cbr 210 ------- 2 4.0 5.0 0 0
+ 0.11176 4 0 cbr 210 ------- 2 4.0 5.0 7 7
- 0.11176 4 0 cbr 210 ------- 2 4.0 5.0 7 7
r 0.1128 4 0 cbr 210 ------- 2 4.0 5.0 1 1
+ 0.1128 0 1 cbr 210 ------- 2 4.0 5.0 1 1
- 0.1128 0 1 cbr 210 ------- 2 4.0 5.0 1 1
+ 0.11344 4 0 cbr 210 ------- 2 4.0 5.0 8 8
- 0.11344 4 0 cbr 210 ------- 2 4.0 5.0 8 8
r 0.11448 4 0 cbr 210 ------- 2 4.0 5.0 2 2
+ 0.11448 0 1 cbr 210 ------- 2 4.0 5.0 2 2
- 0.11448 0 1 cbr 210 ------- 2 4.0 5.0 2 2
+ 0.11512 4 0 cbr 210 ------- 2 4.0 5.0 9 9
- 0.11512 4 0 cbr 210 ------- 2 4.0 5.0 9 9
r 0.11616 4 0 cbr 210 ------- 2 4.0 5.0 3 3
+ 0.11616 0 1 cbr 210 ------- 2 4.0 5.0 3 3
- 0.11616 0 1 cbr 210 ------- 2 4.0 5.0 3 3
+ 0.1168 4 0 cbr 210 ------- 2 4.0 5.0 10 10
- 0.1168 4 0 cbr 210 ------- 2 4.0 5.0 10 10
r 0.11784 4 0 cbr 210 ------- 2 4.0 5.0 4 4
+ 0.11784 0 1 cbr 210 ------- 2 4.0 5.0 4 4
- 0.11784 0 1 cbr 210 ------- 2 4.0 5.0 4 4
+ 0.11848 4 0 cbr 210 ------- 2 4.0 5.0 11 11
- 0.11848 4 0 cbr 210 ------- 2 4.0 5.0 11 11
r 0.11952 4 0 cbr 210 ------- 2 4.0 5.0 5 5
+ 0.11952 0 1 cbr 210 ------- 2 4.0 5.0 5 5
- 0.11952 0 1 cbr 210 ------- 2 4.0 5.0 5 5
+ 0.12016 4 0 cbr 210 ------- 2 4.0 5.0 12 12
- 0.12016 4 0 cbr 210 ------- 2 4.0 5.0 12 12
r 0.1212 4 0 cbr 210 ------- 2 4.0 5.0 6 6
+ 0.1212 0 1 cbr 210 ------- 2 4.0 5.0 6 6
- 0.1212 0 1 cbr 210 ------- 2 4.0 5.0 6 6
+ 0.12184 4 0 cbr 210 ------- 2 4.0 5.0 13 13
- 0.12184 4 0 cbr 210 ------- 2 4.0 5.0 13 13
r 0.12288 4 0 cbr 210 ------- 2 4.0 5.0 7 7
+ 0.12288 0 1 cbr 210 ------- 2 4.0 5.0 7 7
- 0.12288 0 1 cbr 210 ------- 2 4.0 5.0 7 7
+ 0.12352 4 0 cbr 210 ------- 2 4.0 5.0 14 14
- 0.12352 4 0 cbr 210 ------- 2 4.0 5.0 14 14
r 0.12456 4 0 cbr 210 ------- 2 4.0 5.0 8 8
+ 0.12456 0 1 cbr 210 ------- 2 4.0 5.0 8 8
- 0.12456 0 1 cbr 210 ------- 2 4.0 5.0 8 8
+ 0.1252 4 0 cbr 210 ------- 2 4.0 5.0 15 15
- 0.1252 4 0 cbr 210 ------- 2 4.0 5.0 15 15
r 0.12624 4 0 cbr 210 ------- 2 4.0 5.0 9 9
+ 0.12624 0 1 cbr 210 ------- 2 4.0 5.0 9 9
- 0.12624 0 1 cbr 210 ------- 2 4.0 5.0 9 9
+ 0.12688 4 0 cbr 210 ------- 2 4.0 5.0 16 16
- 0.12688 4 0 cbr 210 ------- 2 4.0 5.0 16 16
r 0.12792 4 0 cbr 210 ------- 2 4.0 5.0 10 10
+ 0.12792 0 1 cbr 210 ------- 2 4.0 5.0 10 10
- 0.12792 0 1 cbr 210 ------- 2 4.0 5.0 10 10
+ 0.12856 4 0 cbr 210 ------- 2 4.0 5.0 17 17
- 0.12856 4 0 cbr 210 ------- 2 4.0 5.0 17 17
r 0.1296 4 0 cbr 210 ------- 2 4.0 5.0 11 11
+ 0.1296 0 1 cbr 210 ------- 2 4.0 5.0 11 11
- 0.1296 0 1 cbr 210 ------- 2 4.0 5.0 11 11
+ 0.13024 4 0 cbr 210 ------- 2 4.0 5.0 18 18
- 0.13024 4 0 cbr 210 ------- 2 4.0 5.0 18 18
r 0.13128 4 0 cbr 210 ------- 2 4.0 5.0 12 12
+ 0.13128 0 1 cbr 210 ------- 2 4.0 5.0 12 12
- 0.13128 0 1 cbr 210 ------- 2 4.0 5.0 12 12
+ 0.13192 4 0 cbr 210 ------- 2 4.0 5.0 19 19
- 0.13192 4 0 cbr 210 ------- 2 4.0 5.0 19 19
r 0.13196 0 1 cbr 210 ------- 2 4.0 5.0 0 0
+ 0.13196 1 5 cbr 210 ------- 2 4.0 5.0 0 0
- 0.13196 1 5 cbr 210 ------- 2 4.0 5.0 0 0
r 0.13296 4 0 cbr 210 ------- 2 4.0 5.0 13 13
+ 0.13296 0 1 cbr 210 ------- 2 4.0 5.0 13 13
- 0.13296 0 1 cbr 210 ------- 2 4.0 5.0 13 13
+ 0.1336 4 0 cbr 210 ------- 2 4.0 5.0 20 20
- 0.1336 4 0 cbr 210 ------- 2 4.0 5.0 20 20
r 0.13364 0 1 cbr 210 ------- 2 4.0 5.0 1 1
+ 0.13364 1 5 cbr 210 ------- 2 4.0 5.0 1 1
- 0.13364 1 5 cbr 210 ------- 2 4.0 5.0 1 1
r 0.13464 4 0 cbr 210 ------- 2 4.0 5.0 14 14
+ 0.13464 0 1 cbr 210 ------- 2 4.0 5.0 14 14
- 0.13464 0 1 cbr 210 ------- 2 4.0 5.0 14 14
+ 0.13528 4 0 cbr 210 ------- 2 4.0 5.0 21 21
- 0.13528 4 0 cbr 210 ------- 2 4.0 5.0 21 21
r 0.13532 0 1 cbr 210 ------- 2 4.0 5.0 2 2
+ 0.13532 1 5 cbr 210 ------- 2 4.0 5.0 2 2
- 0.13532 1 5 cbr 210 ------- 2 4.0 5.0 2 2
r 0.13632 4 0 cbr 210 ------- 2 4.0 5.0 15 15
+ 0.13632 0 1 cbr 210 ------- 2 4.0 5.0 15 15
- 0.13632 0 1 cbr 210 ------- 2 4.0 5.0 15 15
+ 0.13696 4 0 cbr 210 ------- 2 4.0 5.0 22 22
- 0.13696 4 0 cbr 210 ------- 2 4.0 5.0 22 22
r 0.137 0 1 cbr 210 ------- 2 4.0 5.0 3 3
+ 0.137 1 5 cbr 210 ------- 2 4.0 5.0 3 3
- 0.137 1 5 cbr 210 ------- 2 4.0 5.0 3 3
r 0.138 4 0 cbr 210 ------- 2 4.0 5.0 16 16
+ 0.138 0 1 cbr 210 ------- 2 4.0 5.0 16 16
- 0.138 0 1 cbr 210 ------- 2 4.0 5.0 16 16
+ 0.13864 4 0 cbr 210 ------- 2 4.0 5.0 23 23
- 0.13864 4 0 cbr 210 ------- 2 4.0 5.0 23 23
r 0.13868 0 1 cbr 210 ------- 2 4.0 5.0 4 4
+ 0.13868 1 5 cbr 210 ------- 2 4.0 5.0 4 4
- 0.13868 1 5 cbr 210 ------- 2 4.0 5.0 4 4
r 0.13968 4 0 cbr 210 ------- 2 4.0 5.0 17 17
+ 0.13968 0 1 cbr 210 ------- 2 4.0 5.0 17 17
- 0.13968 0 1 cbr 210 ------- 2 4.0 5.0 17 17
+ 0.14032 4 0 cbr 210 ------- 2 4.0 5.0 24 24
- 0.14032 4 0 cbr 210 ------- 2 4.0 5.0 24 24
r 0.14036 0 1 cbr 210 ------- 2 4.0 5.0 5 5
+ 0.14036 1 5 cbr 210 ------- 2 4.0 5.0 5 5
- 0.14036 1 5 cbr 210 ------- 2 4.0 5.0 5 5
r 0.14136 4 0 cbr 210 ------- 2 4.0 5.0 18 18
+ 0.14136 0 1 cbr 210 ------- 2 4.0 5.0 18 18
- 0.14136 0 1 cbr 210 ------- 2 4.0 5.0 18 18
+ 0.142 4 0 cbr 210 ------- 2 4.0 5.0 25 25
- 0.142 4 0 cbr 210 ------- 2 4.0 5.0 25 25
r 0.14204 0 1 cbr 210 ------- 2 4.0 5.0 6 6
+ 0.14204 1 5 cbr 210 ------- 2 4.0 5.0 6 6
- 0.14204 1 5 cbr 210 ------- 2 4.0 5.0 6 6
r 0.14304 4 0 cbr 210 ------- 2 4.0 5.0 19 19
+ 0.14304 0 1 cbr 210 ------- 2 4.0 5.0 19 19
- 0.14304 0 1 cbr 210 ------- 2 4.0 5.0 19 19
r 0.14308 1 5 cbr 210 ------- 2 4.0 5.0 0 0
+ 0.14368 4 0 cbr 210 ------- 2 4.0 5.0 26 26
- 0.14368 4 0 cbr 210 ------- 2 4.0 5.0 26 26
r 0.14372 0 1 cbr 210 ------- 2 4.0 5.0 7 7
+ 0.14372 1 5 cbr 210 ------- 2 4.0 5.0 7 7
- 0.14372 1 5 cbr 210 ------- 2 4.0 5.0 7 7
r 0.14472 4 0 cbr 210 ------- 2 4.0 5.0 20 20
+ 0.14472 0 1 cbr 210 ------- 2 4.0 5.0 20 20
- 0.14472 0 1 cbr 210 ------- 2 4.0 5.0 20 20
r 0.14476 1 5 cbr 210 ------- 2 4.0 5.0 1 1
+ 0.14536 4 0 cbr 210 ------- 2 4.0 5.0 27 27
- 0.14536 4 0 cbr 210 ------- 2 4.0 5.0 27 27
r 0.1454 0 1 cbr 210 ------- 2 4.0 5.0 8 8
+ 0.1454 1 5 cbr 210 ------- 2 4.0 5.0 8 8
- 0.1454 1 5 cbr 210 ------- 2 4.0 5.0 8 8
r 0.1464 4 0 cbr 210 ------- 2 4.0 5.0 21 21
+ 0.1464 0 1 cbr 210 ------- 2 4.0 5.0 21 21
- 0.1464 0 1 cbr 210 ------- 2 4.0 5.0 21 21
r 0.14644 1 5 cbr 210 ------- 2 4.0 5.0 2 2
+ 0.14704 4 0 cbr 210 ------- 2 4.0 5.0 28 28
- 0.14704 4 0 cbr 210 ------- 2 4.0 5.0 28 28
r 0.14708 0 1 cbr 210 ------- 2 4.0 5.0 9 9
+ 0.14708 1 5 cbr 210 ------- 2 4.0 5.0 9 9
- 0.14708 1 5 cbr 210 ------- 2 4.0 5.0 9 9
r 0.14808 4 0 cbr 210 ------- 2 4.0 5.0 22 22
+ 0.14808 0 1 cbr 210 ------- 2 4.0 5.0 22 22
- 0.14808 0 1 cbr 210 ------- 2 4.0 5.0 22 22
r 0.14812 1 5 cbr 210 ------- 2 4.0 5.0 3 3
+ 0.14872 4 0 cbr 210 ------- 2 4.0 5.0 29 29
- 0.14872 4 0 cbr 210 ------- 2 4.0 5.0 29 29
r 0.14876 0 1 cbr 210 ------- 2 4.0 5.0 10 10
+ 0.14876 1 5 cbr 210 ------- 2 4.0 5.0 10 10
- 0.14876 1 5 cbr 210 ------- 2 4.0 5.0 10 10
r 0.14976 4 0 cbr 210 ------- 2 4.0 5.0 23 23
+ 0.14976 0 1 cbr 210 ------- 2 4.0 5.0 23 23
- 0.14976 0 1 cbr 210 ------- 2 4.0 5.0 23 23
r 0.1498 1 5 cbr 210 ------- 2 4.0 5.0 4 4
+ 0.1504 4 0 cbr 210 ------- 2 4.0 5.0 30 30
- 0.1504 4 0 cbr 210 ------- 2 4.0 5.0 30 30
r 0.15044 0 1 cbr 210 ------- 2 4.0 5.0 11 11
+ 0.15044 1 5 cbr 210 ------- 2 4.0 5.0 11 11
- 0.15044 1 5 cbr 210 ------- 2 4.0 5.0 11 11
r 0.15144 4 0 cbr 210 ------- 2 4.0 5.0 24 24
+ 0.15144 0 1 cbr 210 ------- 2 4.0 5.0 24 24
- 0.15144 0 1 cbr 210 ------- 2 4.0 5.0 24 24
r 0.15148 1 5 cbr 210 ------- 2 4.0 5.0 5 5
+ 0.15208 4 0 cbr 210 ------- 2 4.0 5.0 31 31
- 0.15208 4 0 cbr 210 ------- 2 4.0 5.0 31 31
r 0.15212 0 1 cbr 210 ------- 2 4.0 5.0 12 12
+ 0.15212 1 5 cbr 210 ------- 2 4.0 5.0 12 12
- 0.15212 1 5 cbr 210 ------- 2 4.0 5.0 12 12
r 0.15312 4 0 cbr 210 ------- 2 4.0 5.0 25 25
+ 0.15312 0 1 cbr 210 ------- 2 4.0 5.0 25 25
- 0.15312 0 1 cbr 210 ------- 2 4.0 5.0 25 25
r 0.15316 1 5 cbr 210 ------- 2 4.0 5.0 6 6
+ 0.15376 4 0 cbr 210 ------- 2 4.0 5.0 32 32
- 0.15376 4 0 cbr 210 ------- 2 4.0 5.0 32 32
r 0.1538 0 1 cbr 210 ------- 2 4.0 5.0 13 13
+ 0.1538 1 5 cbr 210 ------- 2 4.0 5.0 13 13
- 0.1538 1 5 cbr 210 ------- 2 4.0 5.0 13 13
r 0.1548 4 0 cbr 210 ------- 2 4.0 5.0 26 26
+ 0.1548 0 1 cbr 210 ------- 2 4.0 5.0 26 26
- 0.1548 0 1 cbr 210 ------- 2 4.0 5.0 26 26
r 0.15484 1 5 cbr 210 ------- 2 4.0 5.0 7 7
+ 0.15544 4 0 cbr 210 ------- 2 4.0 5.0 33 33
- 0.15544 4 0 cbr 210 ------- 2 4.0 5.0 33 33
r 0.15548 0 1 cbr 210 ------- 2 4.0 5.0 14 14
+ 0.15548 1 5 cbr 210 ------- 2 4.0 5.0 14 14
- 0.15548 1 5 cbr 210 ------- 2 4.0 5.0 14 14
r 0.15648 4 0 cbr 210 ------- 2 4.0 5.0 27 27
+ 0.15648 0 1 cbr 210 ------- 2 4.0 5.0 27 27
- 0.15648 0 1 cbr 210 ------- 2 4.0 5.0 27 27
r 0.15652 1 5 cbr 210 ------- 2 4.0 5.0 8 8
+ 0.15712 4 0 cbr 210 ------- 2 4.0 5.0 34 34
- 0.15712 4 0 cbr 210 ------- 2 4.0 5.0 34 34
r 0.15716 0 1 cbr 210 ------- 2 4.0 5.0 15 15
+ 0.15716 1 5 cbr 210 ------- 2 4.0 5.0 15 15
- 0.15716 1 5 cbr 210 ------- 2 4.0 5.0 15 15
r 0.15816 4 0 cbr 210 ------- 2 4.0 5.0 28 28
+ 0.15816 0 1 cbr 210 ------- 2 4.0 5.0 28 28
- 0.15816 0 1 cbr 210 ------- 2 4.0 5.0 28 28
r 0.1582 1 5 cbr 210 ------- 2 4.0 5.0 9 9
+ 0.1588 4 0 cbr 210 ------- 2 4.0 5.0 35 35
- 0.1588 4 0 cbr 210 ------- 2 4.0 5.0 35 35
r 0.15884 0 1 cbr 210 ------- 2 4.0 5.0 16 16
+ 0.15884 1 5 cbr 210 ------- 2 4.0 5.0 16 16
- 0.15884 1 5 cbr 210 ------- 2 4.0 5.0 16 16
r 0.15984 4 0 cbr 210 ------- 2 4.0 5.0 29 29
+ 0.15984 0 1 cbr 210 ------- 2 4.0 5.0 29 29
- 0.15984 0 1 cbr 210 ------- 2 4.0 5.0 29 29
r 0.15988 1 5 cbr 210 ------- 2 4.0 5.0 10 10
+ 0.16048 4 0 cbr 210 ------- 2 4.0 5.0 36 36
- 0.16048 4 0 cbr 210 ------- 2 4.0 5.0 36 36
r 0.16052 0 1 cbr 210 ------- 2 4.0 5.0 17 17
+ 0.16052 1 5 cbr 210 ------- 2 4.0 5.0 17 17
- 0.16052 1 5 cbr 210 ------- 2 4.0 5.0 17 17
r 0.16152 4 0 cbr 210 ------- 2 4.0 5.0 30 30
+ 0.16152 0 1 cbr 210 ------- 2 4.0 5.0 30 30
- 0.16152 0 1 cbr 210 ------- 2 4.0 5.0 30 30
r 0.16156 1 5 cbr 210 ------- 2 4.0 5.0 11 11
+ 0.16216 4 0 cbr 210 ------- 2 4.0 5.0 37 37
- 0.16216 4 0 cbr 210 ------- 2 4.0 5.0 37 37
r 0.1622 0 1 cbr 210 ------- 2 4.0 5.0 18 18
+ 0.1622 1 5 cbr 210 ------- 2 4.0 5.0 18 18
- 0.1622 1 5 cbr 210 ------- 2 4.0 5.0 18 18
r 0.1632 4 0 cbr 210 ------- 2 4.0 5.0 31 31
+ 0.1632 0 1 cbr 210 ------- 2 4.0 5.0 31 31
- 0.1632 0 1 cbr 210 ------- 2 4.0 5.0 31 31
r 0.16324 1 5 cbr 210 ------- 2 4.0 5.0 12 12
+ 0.16384 4 0 cbr 210 ------- 2 4.0 5.0 38 38
- 0.16384 4 0 cbr 210 ------- 2 4.0 5.0 38 38
r 0.16388 0 1 cbr 210 ------- 2 4.0 5.0 19 19
+ 0.16388 1 5 cbr 210 ------- 2 4.0 5.0 19 19
- 0.16388 1 5 cbr 210 ------- 2 4.0 5.0 19 19
r 0.16488 4 0 cbr 210 ------- 2 4.0 5.0 32 32
+ 0.16488 0 1 cbr 210 ------- 2 4.0 5.0 32 32
- 0.16488 0 1 cbr 210 ------- 2 4.0 5.0 32 32
r 0.16492 1 5 cbr 210 ------- 2 4.0 5.0 13 13
+ 0.16552 4 0 cbr 210 ------- 2 4.0 5.0 39 39
- 0.16552 4 0 cbr 210 ------- 2 4.0 5.0 39 39
r 0.16556 0 1 cbr 210 ------- 2 4.0 5.0 20 20
+ 0.16556 1 5 cbr 210 ------- 2 4.0 5.0 20 20
- 0.16556 1 5 cbr 210 ------- 2 4.0 5.0 20 20
r 0.16656 4 0 cbr 210 ------- 2 4.0 5.0 33 33
+ 0.16656 0 1 cbr 210 ------- 2 4.0 5.0 33 33
- 0.16656 0 1 cbr 210 ------- 2 4.0 5.0 33 33
r 0.1666 1 5 cbr 210 ------- 2 4.0 5.0 14 14
+ 0.1672 4 0 cbr 210 ------- 2 4.0 5.0 40 40
- 0.1672 4 0 cbr 210 ------- 2 4.0 5.0 40 40
r 0.16724 0 1 cbr 210 ------- 2 4.0 5.0 21 21
+ 0.16724 1 5 cbr 210 ------- 2 4.0 5.0 21 21
- 0.16724 1 5 cbr 210 ------- 2 4.0 5.0 21 21
r 0.16824 4 0 cbr 210 ------- 2 4.0 5.0 34 34
+ 0.16824 0 1 cbr 210 ------- 2 4.0 5.0 34 34
- 0.16824 0 1 cbr 210 ------- 2 4.0 5.0 34 34
r 0.16828 1 5 cbr 210 ------- 2 4.0 5.0 15 15
+ 0.16888 4 0 cbr 210 ------- 2 4.0 5.0 41 41
- 0.16888 4 0 cbr 210 ------- 2 4.0 5.0 41 41
r 0.16892 0 1 cbr 210 ------- 2 4.0 5.0 22 22
+ 0.16892 1 5 cbr 210 ------- 2 4.0 5.0 22 22
- 0.16892 1 5 cbr 210 ------- 2 4.0 5.0 22 22
r 0.16992 4 0 cbr 210 ------- 2 4.0 5.0 35 35
+ 0.16992 0 1 cbr 210 ------- 2 4.0 5.0 35 35
- 0.16992 0 1 cbr 210 ------- 2 4.0 5.0 35 35
r 0.16996 1 5 cbr 210 ------- 2 4.0 5.0 16 16
+ 0.17056 4 0 cbr 210 ------- 2 4.0 5.0 42 42
- 0.17056 4 0 cbr 210 ------- 2 4.0 5.0 42 42
r 0.1706 0 1 cbr 210 ------- 2 4.0 5.0 23 23
+ 0.1706 1 5 cbr 210 ------- 2 4.0 5.0 23 23
- 0.1706 1 5 cbr 210 ------- 2 4.0 5.0 23 23
r 0.1716 4 0 cbr 210 ------- 2 4.0 5.0 36 36
+ 0.1716 0 1 cbr 210 ------- 2 4.0 5.0 36 36
- 0.1716 0 1 cbr 210 ------- 2 4.0 5.0 36 36
r 0.17164 1 5 cbr 210 ------- 2 4.0 5.0 17 17
+ 0.17224 4 0 cbr 210 ------- 2 4.0 5.0 43 43
- 0.17224 4 0 cbr 210 ------- 2 4.0 5.0 43 43
r 0.17228 0 1 cbr 210 ------- 2 4.0 5.0 24 24
+ 0.17228 1 5 cbr 210 ------- 2 4.0 5.0 24 24
- 0.17228 1 5 cbr 210 ------- 2 4.0 5.0 24 24
r 0.17328 4 0 cbr 210 ------- 2 4.0 5.0 37 37
+ 0.17328 0 1 cbr 210 ------- 2 4.0 5.0 37 37
- 0.17328 0 1 cbr 210 ------- 2 4.0 5.0 37 37
r 0.17332 1 5 cbr 210 ------- 2 4.0 5.0 18 18
+ 0.17392 4 0 cbr 210 ------- 2 4.0 5.0 44 44
- 0.17392 4 0 cbr 210 ------- 2 4.0 5.0 44 44
r 0.17396 0 1 cbr 210 ------- 2 4.0 5.0 25 25
+ 0.17396 1 5 cbr 210 ------- 2 4.0 5.0 25 25
- 0.17396 1 5 cbr 210 ------- 2 4.0 5.0 25 25
r 0.17496 4 0 cbr 210 ------- 2 4.0 5.0 38 38
+ 0.17496 0 1 cbr 210 ------- 2 4.0 5.0 38 38
- 0.17496 0 1 cbr 210 ------- 2 4.0 5.0 38 38
r 0.175 1 5 cbr 210 ------- 2 4.0 5.0 19 19
+ 0.1756 4 0 cbr 210 ------- 2 4.0 5.0 45 45
- 0.1756 4 0 cbr 210 ------- 2 4.0 5.0 45 45
r 0.17564 0 1 cbr 210 ------- 2 4.0 5.0 26 26
+ 0.17564 1 5 cbr 210 ------- 2 4.0 5.0 26 26
- 0.17564 1 5 cbr 210 ------- 2 4.0 5.0 26 26
r 0.17664 4 0 cbr 210 ------- 2 4.0 5.0 39 39
+ 0.17664 0 1 cbr 210 ------- 2 4.0 5.0 39 39
- 0.17664 0 1 cbr 210 ------- 2 4.0 5.0 39 39
r 0.17668 1 5 cbr 210 ------- 2 4.0 5.0 20 20
+ 0.17728 4 0 cbr 210 ------- 2 4.0 5.0 46 46
- 0.17728 4 0 cbr 210 ------- 2 4.0 5.0 46 46
r 0.17732 0 1 cbr 210 ------- 2 4.0 5.0 27 27
+ 0.17732 1 5 cbr 210 ------- 2 4.0 5.0 27 27
- 0.17732 1 5 cbr 210 ------- 2 4.0 5.0 27 27
r 0.17832 4 0 cbr 210 ------- 2 4.0 5.0 40 40
+ 0.17832 0 1 cbr 210 ------- 2 4.0 5.0 40 40
- 0.17832 0 1 cbr 210 ------- 2 4.0 5.0 40 40
r 0.17836 1 5 cbr 210 ------- 2 4.0 5.0 21 21
+ 0.17896 4 0 cbr 210 ------- 2 4.0 5.0 47 47
- 0.17896 4 0 cbr 210 ------- 2 4.0 5.0 47 47
r 0.179 0 1 cbr 210 ------- 2 4.0 5.0 28 28
+ 0.179 1 5 cbr 210 ------- 2 4.0 5.0 28 28
- 0.179 1 5 cbr 210 ------- 2 4.0 5.0 28 28
r 0.18 4 0 cbr 210 ------- 2 4.0 5.0 41 41
+ 0.18 0 1 cbr 210 ------- 2 4.0 5.0 41 41
- 0.18 0 1 cbr 210 ------- 2 4.0 5.0 41 41
r 0.18004 1 5 cbr 210 ------- 2 4.0 5.0 22 22
+ 0.18064 4 0 cbr 210 ------- 2 4.0 5.0 48 48
- 0.18064 4 0 cbr 210 ------- 2 4.0 5.0 48 48
r 0.18068 0 1 cbr 210 ------- 2 4.0 5.0 29 29
+ 0.18068 1 5 cbr 210 ------- 2 4.0 5.0 29 29
- 0.18068 1 5 cbr 210 ------- 2 4.0 5.0 29 29
r 0.18168 4 0 cbr 210 ------- 2 4.0 5.0 42 42
+ 0.18168 0 1 cbr 210 ------- 2 4.0 5.0 42 42
- 0.18168 0 1 cbr 210 ------- 2 4.0 5.0 42 42
r 0.18172 1 5 cbr 210 ------- 2 4.0 5.0 23 23
+ 0.18232 4 0 cbr 210 ------- 2 4.0 5.0 49 49
- 0.18232 4 0 cbr 210 ------- 2 4.0 5.0 49 49
r 0.18236 0 1 cbr 210 ------- 2 4.0 5.0 30 30
+ 0.18236 1 5 cbr 210 ------- 2 4.0 5.0 30 30
- 0.18236 1 5 cbr 210 ------- 2 4.0 5.0 30 30
r 0.18336 4 0 cbr 210 ------- 2 4.0 5.0 43 43
+ 0.18336 0 1 cbr 210 ------- 2 4.0 5.0 43 43
- 0.18336 0 1 cbr 210 ------- 2 4.0 5.0 43 43
r 0.1834 1 5 cbr 210 ------- 2 4.0 5.0 24 24
+ 0.184 4 0 cbr 210 ------- 2 4.0 5.0 50 50
- 0.184 4 0 cbr 210 ------- 2 4.0 5.0 50 50
r 0.18404 0 1 cbr 210 ------- 2 4.0 5.0 31 31
+ 0.18404 1 5 cbr 210 ------- 2 4.0 5.0 31 31
- 0.18404 1 5 cbr 210 ------- 2 4.0 5.0 31 31
r 0.18504 4 0 cbr 210 ------- 2 4.0 5.0 44 44
+ 0.18504 0 1 cbr 210 ------- 2 4.0 5.0 44 44
- 0.18504 0 1 cbr 210 ------- 2 4.0 5.0 44 44
r 0.18508 1 5 cbr 210 ------- 2 4.0 5.0 25 25
+ 0.18568 4 0 cbr 210 ------- 2 4.0 5.0 51 51
- 0.18568 4 0 cbr 210 ------- 2 4.0 5.0 51 51
r 0.18572 0 1 cbr 210 ------- 2 4.0 5.0 32 32
+ 0.18572 1 5 cbr 210 ------- 2 4.0 5.0 32 32
- 0.18572 1 5 cbr 210 ------- 2 4.0 5.0 32 32
r 0.18672 4 0 cbr 210 ------- 2 4.0 5.0 45 45
+ 0.18672 0 1 cbr 210 ------- 2 4.0 5.0 45 45
- 0.18672 0 1 cbr 210 ------- 2 4.0 5.0 45 45
r 0.18676 1 5 cbr 210 ------- 2 4.0 5.0 26 26
+ 0.18736 4 0 cbr 210 ------- 2 4.0 5.0 52 52
- 0.18736 4 0 cbr 210 ------- 2 4.0 5.0 52 52
r 0.1874 0 1 cbr 210 ------- 2 4.0 5.0 33 33
+ 0.1874 1 5 cbr 210 ------- 2 4.0 5.0 33 33
- 0.1874 1 5 cbr 210 ------- 2 4.0 5.0 33 33
r 0.1884 4 0 cbr 210 ------- 2 4.0 5.0 46 46
+ 0.1884 0 1 cbr 210 ------- 2 4.0 5.0 46 46
- 0.1884 0 1 cbr 210 ------- 2 4.0 5.0 46 46
r 0.18844 1 5 cbr 210 ------- 2 4.0 5.0 27 27
+ 0.18904 4 0 cbr 210 ------- 2 4.0 5.0 53 53
- 0.18904 4 0 cbr 210 ------- 2 4.0 5.0 53 53
r 0.18908 0 1 cbr 210 ------- 2 4.0 5.0 34 34
+ 0.18908 1 5 cbr 210 ------- 2 4.0 5.0 34 34
- 0.18908 1 5 cbr 210 ------- 2 4.0 5.0 34 34
r 0.19008 4 0 cbr 210 ------- 2 4.0 5.0 47 47
+ 0.19008 0 1 cbr 210 ------- 2 4.0 5.0 47 47
- 0.19008 0 1 cbr 210 ------- 2 4.0 5.0 47 47
r 0.19012 1 5 cbr 210 ------- 2 4.0 5.0 28 28
+ 0.19072 4 0 cbr 210 ------- 2 4.0 5.0 54 54
- 0.19072 4 0 cbr 210 ------- 2 4.0 5.0 54 54
r 0.19076 0 1 cbr 210 ------- 2 4.0 5.0 35 35
+ 0.19076 1 5 cbr 210 ------- 2 4.0 5.0 35 35
- 0.19076 1 5 cbr 210 ------- 2 4.0 5.0 35 35
r 0.19176 4 0 cbr 210 ------- 2 4.0 5.0 48 48
+ 0.19176 0 1 cbr 210 ------- 2 4.0 5.0 48 48
- 0.19176 0 1 cbr 210 ------- 2 4.0 5.0 48 48
r 0.1918 1 5 cbr 210 ------- 2 4.0 5.0 29 29
+ 0.1924 4 0 cbr 210 ------- 2 4.0 5.0 55 55
- 0.1924 4 0 cbr 210 ------- 2 4.0 5.0 55 55
r 0.19244 0 1 cbr 210 ------- 2 4.0 5.0 36 36
+ 0.19244 1 5 cbr 210 ------- 2 4.0 5.0 36 36
- 0.19244 1 5 cbr 210 ------- 2 4.0 5.0 36 36
r 0.19344 4 0 cbr 210 ------- 2 4.0 5.0 49 49
+ 0.19344 0 1 cbr 210 ------- 2 4.0 5.0 49 49
- 0.19344 0 1 cbr 210 ------- 2 4.0 5.0 49 49
r 0.19348 1 5 cbr 210 ------- 2 4.0 5.0 30 30
+ 0.19408 4 0 cbr 210 ------- 2 4.0 5.0 56 56
- 0.19408 4 0 cbr 210 ------- 2 4.0 5.0 56 56
r 0.19412 0 1 cbr 210 ------- 2 4.0 5.0 37 37
+ 0.19412 1 5 cbr 210 ------- 2 4.0 5.0 37 37
- 0.19412 1 5 cbr 210 ------- 2 4.0 5.0 37 37
r 0.19512 4 0 cbr 210 ------- 2 4.0 5.0 50 50
+ 0.19512 0 1 cbr 210 ------- 2 4.0 5.0 50 50
- 0.19512 0 1 cbr 210 ------- 2 4.0 5.0 50 50
r 0.19516 1 5 cbr 210 ------- 2 4.0 5.0 31 31
+ 0.19576 4 0 cbr 210 ------- 2 4.0 5.0 57 57
- 0.19576 4 0 cbr 210 ------- 2 4.0 5.0 57 57
r 0.1958 0 1 cbr 210 ------- 2 4.0 5.0 38 38
+ 0.1958 1 5 cbr 210 ------- 2 4.0 5.0 38 38
- 0.1958 1 5 cbr 210 ------- 2 4.0 5.0 38 38
r 0.1968 4 0 cbr 210 ------- 2 4.0 5.0 51 51
+ 0.1968 0 1 cbr 210 ------- 2 4.0 5.0 51 51
- 0.1968 0 1 cbr 210 ------- 2 4.0 5.0 51 51
r 0.19684 1 5 cbr 210 ------- 2 4.0 5.0 32 32
+ 0.19744 4 0 cbr 210 ------- 2 4.0 5.0 58 58
- 0.19744 4 0 cbr 210 ------- 2 4.0 5.0 58 58
r 0.19748 0 1 cbr 210 ------- 2 4.0 5.0 39 39
+ 0.19748 1 5 cbr 210 ------- 2 4.0 5.0 39 39
- 0.19748 1 5 cbr 210 ------- 2 4.0 5.0 39 39
r 0.19848 4 0 cbr 210 ------- 2 4.0 5.0 52 52
+ 0.19848 0 1 cbr 210 ------- 2 4.0 5.0 52 52
- 0.19848 0 1 cbr 210 ------- 2 4.0 5.0 52 52
r 0.19852 1 5 cbr 210 ------- 2 4.0 5.0 33 33
+ 0.19912 4 0 cbr 210 ------- 2 4.0 5.0 59 59
- 0.19912 4 0 cbr 210 ------- 2 4.0 5.0 59 59
r 0.19916 0 1 cbr 210 ------- 2 4.0 5.0 40 40
+ 0.19916 1 5 cbr 210 ------- 2 4.0 5.0 40 40
- 0.19916 1 5 cbr 210 ------- 2 4.0 5.0 40 40
r 0.20016 4 0 cbr 210 ------- 2 4.0 5.0 53 53
+ 0.20016 0 1 cbr 210 ------- 2 4.0 5.0 53 53
- 0.20016 0 1 cbr 210 ------- 2 4.0 5.0 53 53
r 0.2002 1 5 cbr 210 ------- 2 4.0 5.0 34 34
+ 0.2008 4 0 cbr 210 ------- 2 4.0 5.0 60 60
- 0.2008 4 0 cbr 210 ------- 2 4.0 5.0 60 60
r 0.20084 0 1 cbr 210 ------- 2 4.0 5.0 41 41
+ 0.20084 1 5 cbr 210 ------- 2 4.0 5.0 41 41
- 0.20084 1 5 cbr 210 ------- 2 4.0 5.0 41 41
r 0.20184 4 0 cbr 210 ------- 2 4.0 5.0 54 54
+ 0.20184 0 1 cbr 210 ------- 2 4.0 5.0 54 54
- 0.20184 0 1 cbr 210 ------- 2 4.0 5.0 54 54
r 0.20188 1 5 cbr 210 ------- 2 4.0 5.0 35 35
+ 0.20248 4 0 cbr 210 ------- 2 4.0 5.0 61 61
- 0.20248 4 0 cbr 210 ------- 2 4.0 5.0 61 61
r 0.20252 0 1 cbr 210 ------- 2 4.0 5.0 42 42
+ 0.20252 1 5 cbr 210 ------- 2 4.0 5.0 42 42
- 0.20252 1 5 cbr 210 ------- 2 4.0 5.0 42 42
r 0.20352 4 0 cbr 210 ------- 2 4.0 5.0 55 55
+ 0.20352 0 1 cbr 210 ------- 2 4.0 5.0 55 55
- 0.20352 0 1 cbr 210 ------- 2 4.0 5.0 55 55
r 0.20356 1 5 cbr 210 ------- 2 4.0 5.0 36 36
+ 0.20416 4 0 cbr 210 ------- 2 4.0 5.0 62 62
- 0.20416 4 0 cbr 210 ------- 2 4.0 5.0 62 62
r 0.2042 0 1 cbr 210 ------- 2 4.0 5.0 43 43
+ 0.2042 1 5 cbr 210 ------- 2 4.0 5.0 43 43
- 0.2042 1 5 cbr 210 ------- 2 4.0 5.0 43 43
r 0.2052 4 0 cbr 210 ------- 2 4.0 5.0 56 56
+ 0.2052 0 1 cbr 210 ------- 2 4.0 5.0 56 56
- 0.2052 0 1 cbr 210 ------- 2 4.0 5.0 56 56
r 0.20524 1 5 cbr 210 ------- 2 4.0 5.0 37 37
+ 0.20584 4 0 cbr 210 ------- 2 4.0 5.0 63 63
- 0.20584 4 0 cbr 210 ------- 2 4.0 5.0 63 63
r 0.20588 0 1 cbr 210 ------- 2 4.0 5.0 44 44
+ 0.20588 1 5 cbr 210 ------- 2 4.0 5.0 44 44
- 0.20588 1 5 cbr 210 ------- 2 4.0 5.0 44 44
r 0.20688 4 0 cbr 210 ------- 2 4.0 5.0 57 57
+ 0.20688 0 1 cbr 210 ------- 2 4.0 5.0 57 57
- 0.20688 0 1 cbr 210 ------- 2 4.0 5.0 57 57
r 0.20692 1 5 cbr 210 ------- 2 4.0 5.0 38 38
+ 0.20752 4 0 cbr 210 ------- 2 4.0 5.0 64 64
- 0.20752 4 0 cbr 210 ------- 2 4.0 5.0 64 64
r 0.20756 0 1 cbr 210 ------- 2 4.0 5.0 45 45
+ 0.20756 1 5 cbr 210 ------- 2 4.0 5.0 45 45
- 0.20756 1 5 cbr 210 ------- 2 4.0 5.0 45 45
r 0.20856 4 0 cbr 210 ------- 2 4.0 5.0 58 58
+ 0.20856 0 1 cbr 210 ------- 2 4.0 5.0 58 58
- 0.20856 0 1 cbr 210 ------- 2 4.0 5.0 58 58
r 0.2086 1 5 cbr 210 ------- 2 4.0 5.0 39 39
+ 0.2092 4 0 cbr 210 ------- 2 4.0 5.0 65 65
- 0.2092 4 0 cbr 210 ------- 2 4.0 5.0 65 65
r 0.20924 0 1 cbr 210 ------- 2 4.0 5.0 46 46
+ 0.20924 1 5 cbr 210 ------- 2 4.0 5.0 46 46
- 0.20924 1 5 cbr 210 ------- 2 4.0 5.0 46 46
r 0.21024 4 0 cbr 210 ------- 2 4.0 5.0 59 59
+ 0.21024 0 1 cbr 210 ------- 2 4.0 5.0 59 59
- 0.21024 0 1 cbr 210 ------- 2 4.0 5.0 59 59
r 0.21028 1 5 cbr 210 ------- 2 4.0 5.0 40 40
+ 0.21088 4 0 cbr 210 ------- 2 4.0 5.0 66 66
- 0.21088 4 0 cbr 210 ------- 2 4.0 5.0 66 66
r 0.21092 0 1 cbr 210 ------- 2 4.0 5.0 47 47
+ 0.21092 1 5 cbr 210 ------- 2 4.0 5.0 47 47
- 0.21092 1 5 cbr 210 ------- 2 4.0 5.0 47 47
r 0.21192 4 0 cbr 210 ------- 2 4.0 5.0 60 60
+ 0.21192 0 1 cbr 210 ------- 2 4.0 5.0 60 60
- 0.21192 0 1 cbr 210 ------- 2 4.0 5.0 60 60
r 0.21196 1 5 cbr 210 ------- 2 4.0 5.0 41 41
+ 0.21256 4 0 cbr 210 ------- 2 4.0 5.0 67 67
- 0.21256 4 0 cbr 210 ------- 2 4.0 5.0 67 67
r 0.2126 0 1 cbr 210 ------- 2 4.0 5.0 48 48
+ 0.2126 1 5 cbr 210 ------- 2 4.0 5.0 48 48
- 0.2126 1 5 cbr 210 ------- 2 4.0 5.0 48 48
r 0.2136 4 0 cbr 210 ------- 2 4.0 5.0 61 61
+ 0.2136 0 1 cbr 210 ------- 2 4.0 5.0 61 61
- 0.2136 0 1 cbr 210 ------- 2 4.0 5.0 61 61
r 0.21364 1 5 cbr 210 ------- 2 4.0 5.0 42 42
+ 0.21424 4 0 cbr 210 ------- 2 4.0 5.0 68 68
- 0.21424 4 0 cbr 210 ------- 2 4.0 5.0 68 68
r 0.21428 0 1 cbr 210 ------- 2 4.0 5.0 49 49
+ 0.21428 1 5 cbr 210 ------- 2 4.0 5.0 49 49
- 0.21428 1 5 cbr 210 ------- 2 4.0 5.0 49 49
r 0.21528 4 0 cbr 210 ------- 2 4.0 5.0 62 62
+ 0.21528 0 1 cbr 210 ------- 2 4.0 5.0 62 62
- 0.21528 0 1 cbr 210 ------- 2 4.0 5.0 62 62
r 0.21532 1 5 cbr 210 ------- 2 4.0 5.0 43 43
+ 0.21592 4 0 cbr 210 ------- 2 4.0 5.0 69 69
- 0.21592 4 0 cbr 210 ------- 2 4.0 5.0 69 69
r 0.21596 0 1 cbr 210 ------- 2 4.0 5.0 50 50
+ 0.21596 1 5 cbr 210 ------- 2 4.0 5.0 50 50
- 0.21596 1 5 cbr 210 ------- 2 4.0 5.0 50 50
r 0.21696 4 0 cbr 210 ------- 2 4.0 5.0 63 63
+ 0.21696 0 1 cbr 210 ------- 2 4.0 5.0 63 63
- 0.21696 0 1 cbr 210 ------- 2 4.0 5.0 63 63
r 0.217 1 5 cbr 210 ------- 2 4.0 5.0 44 44
+ 0.2176 4 0 cbr 210 ------- 2 4.0 5.0 70 70
- 0.2176 4 0 cbr 210 ------- 2 4.0 5.0 70 70
r 0.21764 0 1 cbr 210 ------- 2 4.0 5.0 51 51
+ 0.21764 1 5 cbr 210 ------- 2 4.0 5.0 51 51
- 0.21764 1 5 cbr 210 ------- 2 4.0 5.0 51 51
r 0.21864 4 0 cbr 210 ------- 2 4.0 5.0 64 64
+ 0.21864 0 1 cbr 210 ------- 2 4.0 5.0 64 64
- 0.21864 0 1 cbr 210 ------- 2 4.0 5.0 64 64
r 0.21868 1 5 cbr 210 ------- 2 4.0 5.0 45 45
+ 0.21928 4 0 cbr 210 ------- 2 4.0 5.0 71 71
- 0.21928 4 0 cbr 210 ------- 2 4.0 5.0 71 71
r 0.21932 0 1 cbr 210 ------- 2 4.0 5.0 52 52
+ 0.21932 1 5 cbr 210 ------- 2 4.0 5.0 52 52
- 0.21932 1 5 cbr 210 ------- 2 4.0 5.0 52 52
r 0.22032 4 0 cbr 210 ------- 2 4.0 5.0 65 65
+ 0.22032 0 1 cbr 210 ------- 2 4.0 5.0 65 65
- 0.22032 0 1 cbr 210 ------- 2 4.0 5.0 65 65
r 0.22036 1 5 cbr 210 ------- 2 4.0 5.0 46 46
+ 0.22096 4 0 cbr 210 ------- 2 4.0 5.0 72 72
- 0.22096 4 0 cbr 210 ------- 2 4.0 5.0 72 72
r 0.221 0 1 cbr 210 ------- 2 4.0 5.0 53 53
+ 0.221 1 5 cbr 210 ------- 2 4.0 5.0 53 53
- 0.221 1 5 cbr 210 ------- 2 4.0 5.0 53 53
r 0.222 4 0 cbr 210 ------- 2 4.0 5.0 66 66
+ 0.222 0 1 cbr 210 ------- 2 4.0 5.0 66 66
- 0.222 0 1 cbr 210 ------- 2 4.0 5.0 66 66
r 0.22204 1 5 cbr 210 ------- 2 4.0 5.0 47 47
+ 0.22264 4 0 cbr 210 ------- 2 4.0 5.0 73 73
- 0.22264 4 0 cbr 210 ------- 2 4.0 5.0 73 73
r 0.22268 0 1 cbr 210 ------- 2 4.0 5.0 54 54
+ 0.22268 1 5 cbr 210 ------- 2 4.0 5.0 54 54
- 0.22268 1 5 cbr 210 ------- 2 4.0 5.0 54 54
r 0.22368 4 0 cbr 210 ------- 2 4.0 5.0 67 67
+ 0.22368 0 1 cbr 210 ------- 2 4.0 5.0 67 67
- 0.22368 0 1 cbr 210 ------- 2 4.0 5.0 67 67
r 0.22372 1 5 cbr 210 ------- 2 4.0 5.0 48 48
+ 0.22432 4 0 cbr 210 ------- 2 4.0 5.0 74 74
- 0.22432 4 0 cbr 210 ------- 2 4.0 5.0 74 74
r 0.22436 0 1 cbr 210 ------- 2 4.0 5.0 55 55
+ 0.22436 1 5 cbr 210 ------- 2 4.0 5.0 55 55
- 0.22436 1 5 cbr 210 ------- 2 4.0 5.0 55 55
r 0.22536 4 0 cbr 210 ------- 2 4.0 5.0 68 68
+ 0.22536 0 1 cbr 210 ------- 2 4.0 5.0 68 68
- 0.22536 0 1 cbr 210 ------- 2 4.0 5.0 68 68
r 0.2254 1 5 cbr 210 ------- 2 4.0 5.0 49 49
+ 0.226 4 0 cbr 210 ------- 2 4.0 5.0 75 75
- 0.226 4 0 cbr 210 ------- 2 4.0 5.0 75 75
r 0.22604 0 1 cbr 210 ------- 2 4.0 5.0 56 56
+ 0.22604 1 5 cbr 210 ------- 2 4.0 5.0 56 56
- 0.22604 1 5 cbr 210 ------- 2 4.0 5.0 56 56
r 0.22704 4 0 cbr 210 ------- 2 4.0 5.0 69 69
+ 0.22704 0 1 cbr 210 ------- 2 4.0 5.0 69 69
- 0.22704 0 1 cbr 210 ------- 2 4.0 5.0 69 69
r 0.22708 1 5 cbr 210 ------- 2 4.0 5.0 50 50
+ 0.22768 4 0 cbr 210 ------- 2 4.0 5.0 76 76
- 0.22768 4 0 cbr 210 ------- 2 4.0 5.0 76 76
r 0.22772 0 1 cbr 210 ------- 2 4.0 5.0 57 57
+ 0.22772 1 5 cbr 210 ------- 2 4.0 5.0 57 57
- 0.22772 1 5 cbr 210 ------- 2 4.0 5.0 57 57
r 0.22872 4 0 cbr 210 ------- 2 4.0 5.0 70 70
+ 0.22872 0 1 cbr 210 ------- 2 4.0 5.0 70 70
- 0.22872 0 1 cbr 210 ------- 2 4.0 5.0 70 70
r 0.22876 1 5 cbr 210 ------- 2 4.0 5.0 51 51
+ 0.22936 4 0 cbr 210 ------- 2 4.0 5.0 77 77
- 0.22936 4 0 cbr 210 ------- 2 4.0 5.0 77 77
r 0.2294 0 1 cbr 210 ------- 2 4.0 5.0 58 58
+ 0.2294 1 5 cbr 210 ------- 2 4.0 5.0 58 58
- 0.2294 1 5 cbr 210 ------- 2 4.0 5.0 58 58
r 0.2304 4 0 cbr 210 ------- 2 4.0 5.0 71 71
+ 0.2304 0 1 cbr 210 ------- 2 4.0 5.0 71 71
- 0.2304 0 1 cbr 210 ------- 2 4.0 5.0 71 71
r 0.23044 1 5 cbr 210 ------- 2 4.0 5.0 52 52
+ 0.23104 4 0 cbr 210 ------- 2 4.0 5.0 78 78
- 0.23104 4 0 cbr 210 ------- 2 4.0 5.0 78 78
r 0.23108 0 1 cbr 210 ------- 2 4.0 5.0 59 59
+ 0.23108 1 5 cbr 210 ------- 2 4.0 5.0 59 59
- 0.23108 1 5 cbr 210 ------- 2 4.0 5.0 59 59
r 0.23208 4 0 cbr 210 ------- 2 4.0 5.0 72 72
+ 0.23208 0 1 cbr 210 ------- 2 4.0 5.0 72 72
- 0.23208 0 1 cbr 210 ------- 2 4.0 5.0 72 72
r 0.23212 1 5 cbr 210 ------- 2 4.0 5.0 53 53
+ 0.23272 4 0 cbr 210 ------- 2 4.0 5.0 79 79
- 0.23272 4 0 cbr 210 ------- 2 4.0 5.0 79 79
r 0.23276 0 1 cbr 210 ------- 2 4.0 5.0 60 60
+ 0.23276 1 5 cbr 210 ------- 2 4.0 5.0 60 60
- 0.23276 1 5 cbr 210 ------- 2 4.0 5.0 60 60
r 0.23376 4 0 cbr 210 ------- 2 4.0 5.0 73 73
+ 0.23376 0 1 cbr 210 ------- 2 4.0 5.0 73 73
- 0.23376 0 1 cbr 210 ------- 2 4.0 5.0 73 73
r 0.2338 1 5 cbr 210 ------- 2 4.0 5.0 54 54
+ 0.2344 4 0 cbr 210 ------- 2 4.0 5.0 80 80
- 0.2344 4 0 cbr 210 ------- 2 4.0 5.0 80 80
r 0.23444 0 1 cbr 210 ------- 2 4.0 5.0 61 61
+ 0.23444 1 5 cbr 210 ------- 2 4.0 5.0 61 61
- 0.23444 1 5 cbr 210 ------- 2 4.0 5.0 61 61
r 0.23544 4 0 cbr 210 ------- 2 4.0 5.0 74 74
+ 0.23544 0 1 cbr 210 ------- 2 4.0 5.0 74 74
- 0.23544 0 1 cbr 210 ------- 2 4.0 5.0 74 74
r 0.23548 1 5 cbr 210 ------- 2 4.0 5.0 55 55
+ 0.23608 4 0 cbr 210 ------- 2 4.0 5.0 81 81
- 0.23608 4 0 cbr 210 ------- 2 4.0 5.0 81 81
r 0.23612 0 1 cbr 210 ------- 2 4.0 5.0 62 62
+ 0.23612 1 5 cbr 210 ------- 2 4.0 5.0 62 62
- 0.23612 1 5 cbr 210 ------- 2 4.0 5.0 62 62
r 0.23712 4 0 cbr 210 ------- 2 4.0 5.0 75 75
+ 0.23712 0 1 cbr 210 ------- 2 4.0 5.0 75 75
- 0.23712 0 1 cbr 210 ------- 2 4.0 5.0 75 75
r 0.23716 1 5 cbr 210 ------- 2 4.0 5.0 56 56
+ 0.23776 4 0 cbr 210 ------- 2 4.0 5.0 82 82
- 0.23776 4 0 cbr 210 ------- 2 4.0 5.0 82 82
r 0.2378 0 1 cbr 210 ------- 2 4.0 5.0 63 63
+ 0.2378 1 5 cbr 210 ------- 2 4.0 5.0 63 63
- 0.2378 1 5 cbr 210 ------- 2 4.0 5.0 63 63
r 0.2388 4 0 cbr 210 ------- 2 4.0 5.0 76 76
+ 0.2388 0 1 cbr 210 ------- 2 4.0 5.0 76 76
- 0.2388 0 1 cbr 210 ------- 2 4.0 5.0 76 76
r 0.23884 1 5 cbr 210 ------- 2 4.0 5.0 57 57
+ 0.23944 4 0 cbr 210 ------- 2 4.0 5.0 83 83
- 0.23944 4 0 cbr 210 ------- 2 4.0 5.0 83 83
r 0.23948 0 1 cbr 210 ------- 2 4.0 5.0 64 64
+ 0.23948 1 5 cbr 210 ------- 2 4.0 5.0 64 64
- 0.23948 1 5 cbr 210 ------- 2 4.0 5.0 64 64
r 0.24048 4 0 cbr 210 ------- 2 4.0 5.0 77 77
+ 0.24048 0 1 cbr 210 ------- 2 4.0 5.0 77 77
- 0.24048 0 1 cbr 210 ------- 2 4.0 5.0 77 77
r 0.24052 1 5 cbr 210 ------- 2 4.0 5.0 58 58
+ 0.24112 4 0 cbr 210 ------- 2 4.0 5.0 84 84
- 0.24112 4 0 cbr 210 ------- 2 4.0 5.0 84 84
r 0.24116 0 1 cbr 210 ------- 2 4.0 5.0 65 65